# Residuals   
# Time        	p             	Ux            	Uy            
0.01          	1.000000e+00	1.000000e+00	0.000000e+00
0.02          	6.537033e-01	2.406135e-01	1.106401e-01
0.03          	6.250009e-01	2.006530e-01	5.628141e-02
0.04          	6.376070e-01	1.415963e-01	4.052111e-02
0.05          	6.219137e-01	1.065510e-01	2.735510e-02
0.06          	6.315546e-01	8.156372e-02	2.244656e-02
0.07          	6.003100e-01	6.588890e-02	1.863961e-02
0.08          	6.065039e-01	5.481911e-02	1.591056e-02
0.09          	5.839240e-01	4.666338e-02	1.569104e-02
0.10          	5.734679e-01	4.022532e-02	1.403650e-02
0.11          	5.780202e-01	3.567583e-02	1.423190e-02
0.12          	5.726456e-01	3.216057e-02	1.459994e-02
0.13          	5.661107e-01	2.865938e-02	1.397158e-02
0.14          	5.630204e-01	2.667550e-02	1.445082e-02
0.15          	5.593090e-01	2.415065e-02	1.410061e-02
0.16          	5.486357e-01	2.275431e-02	1.399918e-02
0.17          	5.370325e-01	2.140677e-02	1.370731e-02
0.18          	5.248776e-01	1.996184e-02	1.297376e-02
0.19          	5.232825e-01	1.868620e-02	1.238678e-02
0.20          	5.166614e-01	1.754463e-02	1.168180e-02
0.21          	4.981187e-01	1.669103e-02	1.115997e-02
0.22          	4.826318e-01	1.571553e-02	1.037302e-02
0.23          	4.661657e-01	1.484165e-02	9.938300e-03
0.24          	4.515626e-01	1.414874e-02	9.438589e-03
0.25          	4.355984e-01	1.342448e-02	8.915434e-03
0.26          	4.261182e-01	1.275855e-02	8.714776e-03
0.27          	4.204863e-01	1.224716e-02	8.389681e-03
0.28          	3.953281e-01	1.164701e-02	8.092425e-03
0.29          	3.861910e-01	1.113460e-02	7.969901e-03
0.30          	3.748939e-01	1.065353e-02	7.827419e-03
0.31          	3.596913e-01	1.024204e-02	7.803858e-03
0.32          	3.376165e-01	9.810169e-03	7.507595e-03
0.33          	3.298787e-01	9.491904e-03	7.506028e-03
0.34          	3.122992e-01	9.178283e-03	7.358926e-03
0.35          	2.933923e-01	8.904681e-03	7.264587e-03
0.36          	2.816099e-01	8.670306e-03	7.264351e-03
0.37          	2.816649e-01	8.482821e-03	7.128326e-03
0.38          	2.723423e-01	8.279735e-03	7.238031e-03
0.39          	2.674822e-01	8.064716e-03	7.152496e-03
0.40          	2.635658e-01	7.786265e-03	7.136825e-03
0.41          	2.538010e-01	7.576299e-03	7.067634e-03
0.42          	2.388865e-01	7.419699e-03	7.056968e-03
0.43          	2.361734e-01	7.234016e-03	7.038962e-03
0.44          	2.335793e-01	6.992804e-03	6.951640e-03
0.45          	2.316445e-01	6.862246e-03	6.952616e-03
0.46          	2.274358e-01	6.680844e-03	6.902017e-03
0.47          	2.120480e-01	6.531691e-03	6.852798e-03
0.48          	2.174414e-01	6.449971e-03	6.872426e-03
0.49          	2.269340e-01	6.333256e-03	6.957175e-03
0.50          	2.292997e-01	6.287115e-03	6.892591e-03
0.51          	2.256100e-01	6.113158e-03	6.890193e-03
0.52          	2.135788e-01	5.929339e-03	6.896127e-03
0.53          	2.139473e-01	5.845332e-03	6.874701e-03
0.54          	2.172577e-01	5.811789e-03	6.945625e-03
0.55          	2.204689e-01	5.721786e-03	7.094363e-03
0.56          	2.221046e-01	5.668549e-03	7.329946e-03
0.57          	2.295080e-01	5.629742e-03	7.477246e-03
0.58          	2.345671e-01	5.595407e-03	7.614296e-03
0.59          	2.503776e-01	5.647217e-03	7.711464e-03
0.60          	2.525769e-01	5.612481e-03	7.874904e-03
0.61          	2.569260e-01	5.567480e-03	7.766100e-03
0.62          	2.545682e-01	5.503298e-03	7.855780e-03
0.63          	2.430505e-01	5.310012e-03	7.625485e-03
0.64          	2.460059e-01	5.289508e-03	7.696209e-03
0.65          	2.324556e-01	5.158642e-03	7.573903e-03
0.66          	2.318837e-01	5.068796e-03	7.562819e-03
0.67          	2.268062e-01	4.963874e-03	7.498183e-03
0.68          	2.291292e-01	4.817645e-03	7.486766e-03
0.69          	2.220192e-01	4.757137e-03	7.399905e-03
0.70          	2.144837e-01	4.648931e-03	7.236297e-03
0.71          	2.146081e-01	4.575061e-03	7.173262e-03
0.72          	2.101699e-01	4.458166e-03	7.025042e-03
0.73          	2.102351e-01	4.414496e-03	7.009399e-03
0.74          	2.093254e-01	4.405715e-03	6.952481e-03
0.75          	2.060629e-01	4.362461e-03	6.830642e-03
0.76          	2.035467e-01	4.313638e-03	6.657217e-03
0.77          	2.135667e-01	4.266970e-03	6.505236e-03
0.78          	2.177214e-01	4.274920e-03	6.351202e-03
0.79          	2.386752e-01	4.255619e-03	6.389055e-03
0.80          	2.667025e-01	4.239282e-03	6.539622e-03
0.81          	2.848905e-01	4.239574e-03	6.821874e-03
0.82          	2.828627e-01	4.258395e-03	7.176638e-03
0.83          	2.840150e-01	4.250133e-03	7.892169e-03
0.84          	2.965404e-01	4.290727e-03	8.751576e-03
0.85          	3.052932e-01	4.221205e-03	9.316830e-03
0.86          	3.152702e-01	4.165956e-03	9.908366e-03
0.87          	3.259031e-01	4.081115e-03	1.021768e-02
0.88          	3.423596e-01	4.054955e-03	1.064323e-02
0.89          	3.426077e-01	3.999847e-03	1.105871e-02
0.90          	3.578408e-01	3.988578e-03	1.175268e-02
0.91          	3.720777e-01	3.993860e-03	1.230275e-02
0.92          	3.747516e-01	4.000396e-03	1.294286e-02
0.93          	3.855196e-01	4.027092e-03	1.366224e-02
0.94          	3.934986e-01	4.019837e-03	1.438397e-02
0.95          	3.808663e-01	3.939086e-03	1.492865e-02
0.96          	3.710302e-01	3.908972e-03	1.564996e-02
0.97          	3.758208e-01	3.896121e-03	1.610806e-02
0.98          	3.813526e-01	3.885769e-03	1.626927e-02
0.99          	3.669184e-01	3.949566e-03	1.665977e-02
1.00          	3.606693e-01	3.960281e-03	1.691657e-02
1.01          	3.606253e-01	3.925787e-03	1.680730e-02
1.02          	3.507221e-01	3.917823e-03	1.703698e-02
1.03          	3.519472e-01	3.877679e-03	1.707038e-02
1.04          	3.573056e-01	3.828626e-03	1.715960e-02
1.05          	3.504646e-01	3.730311e-03	1.687805e-02
1.06          	3.485638e-01	3.692585e-03	1.634025e-02
1.07          	3.528694e-01	3.671156e-03	1.579577e-02
1.08          	3.491441e-01	3.565675e-03	1.512128e-02
1.09          	3.522816e-01	3.482875e-03	1.450632e-02
1.10          	3.675218e-01	3.455531e-03	1.403691e-02
1.11          	3.708858e-01	3.448194e-03	1.400497e-02
1.12          	3.768054e-01	3.496710e-03	1.421771e-02
1.13          	3.735543e-01	3.554118e-03	1.457333e-02
1.14          	3.652058e-01	3.612646e-03	1.510251e-02
1.15          	3.490569e-01	3.616158e-03	1.514134e-02
1.16          	3.508475e-01	3.641601e-03	1.513935e-02
1.17          	3.464623e-01	3.655084e-03	1.472156e-02
1.18          	3.368959e-01	3.648140e-03	1.449820e-02
1.19          	3.486519e-01	3.688506e-03	1.450828e-02
1.20          	3.531790e-01	3.702770e-03	1.463940e-02
1.21          	3.593472e-01	3.733292e-03	1.499653e-02
1.22          	3.647804e-01	3.725244e-03	1.534674e-02
1.23          	3.702065e-01	3.710354e-03	1.572622e-02
1.24          	3.638043e-01	3.692098e-03	1.644629e-02
1.25          	3.607413e-01	3.658702e-03	1.727630e-02
1.26          	3.636679e-01	3.630498e-03	1.816435e-02
1.27          	3.896974e-01	3.612787e-03	1.905624e-02
1.28          	3.842805e-01	3.617145e-03	1.987110e-02
1.29          	3.790909e-01	3.599329e-03	2.067265e-02
1.30          	4.000077e-01	3.604039e-03	2.166583e-02
1.31          	3.901928e-01	3.619449e-03	2.272626e-02
1.32          	4.055544e-01	3.640960e-03	2.393945e-02
1.33          	4.088654e-01	3.675508e-03	2.573522e-02
1.34          	4.024149e-01	3.704582e-03	2.767698e-02
1.35          	3.869524e-01	3.708742e-03	2.987639e-02
1.36          	3.788600e-01	3.738941e-03	3.206356e-02
1.37          	3.644228e-01	3.726845e-03	3.380088e-02
1.38          	3.656839e-01	3.686248e-03	3.496900e-02
1.39          	3.585714e-01	3.640466e-03	3.572925e-02
1.40          	3.498784e-01	3.596841e-03	3.571194e-02
1.41          	3.684662e-01	3.578597e-03	3.534678e-02
1.42          	3.875190e-01	3.570934e-03	3.482631e-02
1.43          	3.889414e-01	3.595763e-03	3.377534e-02
1.44          	3.899764e-01	3.653487e-03	3.171762e-02
1.45          	3.891900e-01	3.728941e-03	2.950331e-02
1.46          	3.733569e-01	3.884910e-03	2.761562e-02
1.47          	3.737878e-01	4.044874e-03	2.658547e-02
1.48          	3.781009e-01	4.173039e-03	2.569497e-02
1.49          	3.797021e-01	4.298458e-03	2.539108e-02
1.50          	3.844779e-01	4.395457e-03	2.544808e-02
1.51          	3.931600e-01	4.544713e-03	2.556113e-02
1.52          	3.967482e-01	4.633025e-03	2.595505e-02
1.53          	3.901067e-01	4.706610e-03	2.626550e-02
1.54          	3.903832e-01	4.757587e-03	2.661327e-02
1.55          	3.917631e-01	4.795129e-03	2.709223e-02
1.56          	3.777139e-01	4.847355e-03	2.766275e-02
1.57          	3.849468e-01	4.890914e-03	2.806639e-02
1.58          	3.771328e-01	4.948237e-03	2.841115e-02
1.59          	3.812007e-01	5.037400e-03	2.864855e-02
1.60          	3.769439e-01	5.139173e-03	2.867708e-02
1.61          	3.666300e-01	5.256210e-03	2.883685e-02
1.62          	3.607259e-01	5.366123e-03	2.930440e-02
1.63          	3.582450e-01	5.484373e-03	2.989020e-02
1.64          	3.614755e-01	5.580163e-03	3.059232e-02
1.65          	3.577415e-01	5.677238e-03	3.167115e-02
1.66          	3.731554e-01	5.723873e-03	3.250522e-02
1.67          	3.831417e-01	5.751217e-03	3.327539e-02
1.68          	3.700351e-01	5.824128e-03	3.361182e-02
1.69          	3.737571e-01	5.840967e-03	3.356262e-02
1.70          	3.738779e-01	5.812013e-03	3.327608e-02
1.71          	3.578309e-01	5.804555e-03	3.317530e-02
1.72          	3.562556e-01	5.747006e-03	3.283672e-02
1.73          	3.729406e-01	5.672019e-03	3.247280e-02
1.74          	3.499415e-01	5.605366e-03	3.221626e-02
1.75          	3.473106e-01	5.533764e-03	3.169326e-02
1.76          	3.442802e-01	5.515234e-03	3.146233e-02
1.77          	3.317907e-01	5.424268e-03	3.099012e-02
1.78          	3.203936e-01	5.369168e-03	3.027278e-02
1.79          	3.469086e-01	5.376524e-03	3.008879e-02
1.80          	3.564548e-01	5.413100e-03	3.018230e-02
1.81          	3.869501e-01	5.453334e-03	3.063784e-02
1.82          	4.066918e-01	5.491063e-03	3.124106e-02
1.83          	4.117807e-01	5.525539e-03	3.207870e-02
1.84          	4.124542e-01	5.574229e-03	3.286208e-02
1.85          	4.029466e-01	5.669727e-03	3.363989e-02
1.86          	3.887675e-01	5.773982e-03	3.468189e-02
1.87          	4.016009e-01	5.933581e-03	3.566850e-02
1.88          	4.024040e-01	6.056180e-03	3.676641e-02
1.89          	3.983545e-01	6.180215e-03	3.768571e-02
1.90          	4.085893e-01	6.290171e-03	3.842720e-02
1.91          	3.996224e-01	6.331827e-03	3.884188e-02
1.92          	3.802204e-01	6.337267e-03	3.899301e-02
1.93          	3.974396e-01	6.284546e-03	3.892871e-02
1.94          	3.989449e-01	6.261472e-03	3.869755e-02
1.95          	3.844389e-01	6.304353e-03	3.835745e-02
1.96          	3.816461e-01	6.270167e-03	3.779100e-02
1.97          	3.758162e-01	6.230478e-03	3.708462e-02
1.98          	3.718244e-01	6.262691e-03	3.633605e-02
1.99          	3.712836e-01	6.282977e-03	3.562242e-02
2.00          	3.725525e-01	6.280701e-03	3.501386e-02
2.01          	3.603639e-01	6.222936e-03	3.458993e-02
2.02          	3.662609e-01	6.158362e-03	3.414554e-02
2.03          	3.755317e-01	6.101378e-03	3.371988e-02
2.04          	3.855467e-01	6.019440e-03	3.323674e-02
2.05          	3.835748e-01	6.040426e-03	3.274595e-02
2.06          	3.672196e-01	6.047990e-03	3.256919e-02
2.07          	3.490157e-01	6.083509e-03	3.259798e-02
2.08          	3.299684e-01	6.137412e-03	3.264105e-02
2.09          	3.113510e-01	6.180761e-03	3.286151e-02
2.10          	3.141132e-01	6.254571e-03	3.310903e-02
2.11          	3.144772e-01	6.367889e-03	3.342158e-02
2.12          	3.340422e-01	6.388925e-03	3.350064e-02
2.13          	3.446344e-01	6.504978e-03	3.348055e-02
2.14          	3.410495e-01	6.569251e-03	3.344216e-02
2.15          	3.562814e-01	6.614354e-03	3.356054e-02
2.16          	3.427620e-01	6.681734e-03	3.357705e-02
2.17          	3.478961e-01	6.696429e-03	3.349117e-02
2.18          	3.660255e-01	6.773933e-03	3.360437e-02
2.19          	3.722906e-01	6.790499e-03	3.362317e-02
2.20          	3.624278e-01	6.819328e-03	3.354607e-02
2.21          	3.550745e-01	6.808175e-03	3.361632e-02
2.22          	3.583674e-01	6.716327e-03	3.339556e-02
2.23          	3.632241e-01	6.652632e-03	3.322516e-02
2.24          	3.537959e-01	6.555427e-03	3.300326e-02
2.25          	3.471814e-01	6.442630e-03	3.275915e-02
2.26          	3.595719e-01	6.345131e-03	3.259256e-02
2.27          	3.678726e-01	6.251517e-03	3.235806e-02
2.28          	3.737434e-01	6.233285e-03	3.231593e-02
2.29          	3.873065e-01	6.213416e-03	3.241682e-02
2.30          	3.832040e-01	6.228105e-03	3.276385e-02
2.31          	4.074550e-01	6.217762e-03	3.278770e-02
2.32          	3.867052e-01	6.245635e-03	3.326843e-02
2.33          	3.790550e-01	6.280935e-03	3.380373e-02
2.34          	3.706189e-01	6.322379e-03	3.438761e-02
2.35          	3.758991e-01	6.374717e-03	3.507242e-02
2.36          	3.740194e-01	6.398211e-03	3.571743e-02
2.37          	3.530165e-01	6.410116e-03	3.622519e-02
2.38          	3.639677e-01	6.407814e-03	3.665001e-02
2.39          	3.674961e-01	6.457968e-03	3.712210e-02
2.40          	3.700180e-01	6.514927e-03	3.757135e-02
2.41          	3.755942e-01	6.530204e-03	3.805396e-02
2.42          	3.808336e-01	6.478809e-03	3.822905e-02
2.43          	3.851180e-01	6.380123e-03	3.812855e-02
2.44          	3.802195e-01	6.278447e-03	3.799466e-02
2.45          	3.757629e-01	6.200877e-03	3.780908e-02
2.46          	3.675288e-01	6.171244e-03	3.751181e-02
2.47          	3.864099e-01	6.229360e-03	3.740176e-02
2.48          	3.880972e-01	6.244616e-03	3.715853e-02
2.49          	3.986393e-01	6.290184e-03	3.703604e-02
2.50          	3.863767e-01	6.297485e-03	3.674178e-02
2.51          	3.839067e-01	6.289122e-03	3.652651e-02
2.52          	3.735737e-01	6.275106e-03	3.630028e-02
2.53          	3.516892e-01	6.224475e-03	3.568134e-02
2.54          	3.531431e-01	6.155886e-03	3.506939e-02
2.55          	3.484696e-01	6.197320e-03	3.459584e-02
2.56          	3.477944e-01	6.186513e-03	3.399762e-02
2.57          	3.408996e-01	6.169255e-03	3.332954e-02
2.58          	3.348446e-01	6.136694e-03	3.278304e-02
2.59          	3.295621e-01	6.082222e-03	3.233157e-02
2.60          	3.401912e-01	6.070925e-03	3.191381e-02
2.61          	3.444077e-01	6.091926e-03	3.159382e-02
2.62          	3.457310e-01	6.137993e-03	3.127710e-02
2.63          	3.362987e-01	6.158212e-03	3.101025e-02
2.64          	3.447247e-01	6.140832e-03	3.084426e-02
2.65          	3.489320e-01	6.114321e-03	3.064700e-02
2.66          	3.280870e-01	6.106157e-03	3.072654e-02
2.67          	3.562395e-01	6.090916e-03	3.078231e-02
2.68          	3.500079e-01	6.049843e-03	3.093487e-02
2.69          	3.483956e-01	5.993040e-03	3.110468e-02
2.70          	3.640854e-01	5.878404e-03	3.121701e-02
2.71          	3.574542e-01	5.761017e-03	3.106211e-02
2.72          	3.478334e-01	5.627333e-03	3.100306e-02
2.73          	3.369614e-01	5.538285e-03	3.104318e-02
2.74          	3.521868e-01	5.500066e-03	3.120690e-02
2.75          	3.798515e-01	5.503671e-03	3.162460e-02
2.76          	4.191092e-01	5.568964e-03	3.227595e-02
2.77          	4.582332e-01	5.655733e-03	3.288270e-02
2.78          	4.453751e-01	5.740889e-03	3.343941e-02
2.79          	4.257270e-01	5.845532e-03	3.417887e-02
2.80          	4.055038e-01	5.926209e-03	3.510664e-02
2.81          	4.129535e-01	6.011359e-03	3.595486e-02
2.82          	4.093287e-01	6.092690e-03	3.672723e-02
2.83          	3.915214e-01	6.113382e-03	3.720718e-02
2.84          	3.885847e-01	6.156629e-03	3.768067e-02
2.85          	3.780987e-01	6.163742e-03	3.783757e-02
2.86          	3.855472e-01	6.213014e-03	3.785728e-02
2.87          	3.878117e-01	6.241946e-03	3.781730e-02
2.88          	3.922803e-01	6.229638e-03	3.765335e-02
2.89          	4.065743e-01	6.234167e-03	3.742026e-02
2.90          	4.038654e-01	6.167514e-03	3.685328e-02
2.91          	3.773362e-01	6.142988e-03	3.624285e-02
2.92          	3.900240e-01	6.161916e-03	3.565306e-02
2.93          	3.956673e-01	6.208373e-03	3.521748e-02
2.94          	3.836527e-01	6.262916e-03	3.465868e-02
2.95          	3.924336e-01	6.305706e-03	3.412162e-02
2.96          	3.775206e-01	6.334431e-03	3.383284e-02
2.97          	3.692588e-01	6.341856e-03	3.339763e-02
2.98          	3.560421e-01	6.361256e-03	3.304936e-02
2.99          	3.431913e-01	6.353643e-03	3.255948e-02
3.00          	3.333609e-01	6.331993e-03	3.204750e-02
3.01          	3.051640e-01	6.276293e-03	3.143656e-02
3.02          	2.991083e-01	6.196507e-03	3.070958e-02
3.03          	2.914456e-01	6.131221e-03	3.009828e-02
3.04          	2.671524e-01	6.064370e-03	2.958507e-02
3.05          	2.633177e-01	5.991015e-03	2.903311e-02
3.06          	2.758698e-01	5.926458e-03	2.860952e-02
3.07          	2.964905e-01	5.873393e-03	2.834707e-02
3.08          	3.138387e-01	5.878430e-03	2.821748e-02
3.09          	3.069248e-01	5.894774e-03	2.810245e-02
3.10          	2.980040e-01	5.938657e-03	2.823391e-02
3.11          	2.961571e-01	5.978777e-03	2.846268e-02
3.12          	3.092300e-01	6.011643e-03	2.861820e-02
3.13          	3.181527e-01	6.030678e-03	2.892390e-02
3.14          	3.313918e-01	6.013826e-03	2.919140e-02
3.15          	3.291620e-01	5.960281e-03	2.968488e-02
3.16          	3.382378e-01	5.907280e-03	3.006415e-02
3.17          	3.311444e-01	5.811729e-03	3.039027e-02
3.18          	3.463837e-01	5.690671e-03	3.074814e-02
3.19          	3.570897e-01	5.545454e-03	3.094562e-02
3.20          	3.486511e-01	5.414257e-03	3.124704e-02
3.21          	3.594668e-01	5.346443e-03	3.168419e-02
3.22          	3.641357e-01	5.330668e-03	3.220537e-02
3.23          	3.753751e-01	5.338106e-03	3.281930e-02
3.24          	3.837539e-01	5.379031e-03	3.366087e-02
3.25          	3.833822e-01	5.375396e-03	3.427987e-02
3.26          	3.700760e-01	5.379724e-03	3.505725e-02
3.27          	3.844814e-01	5.389849e-03	3.569090e-02
3.28          	4.117955e-01	5.473595e-03	3.646625e-02
3.29          	4.252678e-01	5.581491e-03	3.688334e-02
3.30          	4.219193e-01	5.735558e-03	3.726191e-02
3.31          	4.088916e-01	5.865379e-03	3.734460e-02
3.32          	4.020150e-01	5.965079e-03	3.732312e-02
3.33          	3.985813e-01	6.028387e-03	3.706860e-02
3.34          	3.979961e-01	6.038945e-03	3.665971e-02
3.35          	3.918360e-01	6.049888e-03	3.608643e-02
3.36          	3.849015e-01	6.044195e-03	3.529846e-02
3.37          	4.020731e-01	6.057145e-03	3.443494e-02
3.38          	3.844675e-01	6.086831e-03	3.380610e-02
3.39          	3.944310e-01	6.108913e-03	3.295553e-02
3.40          	3.957878e-01	6.176303e-03	3.229036e-02
3.41          	3.965375e-01	6.232956e-03	3.169378e-02
3.42          	4.059320e-01	6.312077e-03	3.130921e-02
3.43          	3.987766e-01	6.382821e-03	3.085174e-02
3.44          	3.926096e-01	6.427128e-03	3.050795e-02
3.45          	3.653643e-01	6.457002e-03	3.036587e-02
3.46          	3.350340e-01	6.452290e-03	3.005892e-02
3.47          	3.207645e-01	6.431449e-03	2.964750e-02
3.48          	3.072193e-01	6.371039e-03	2.927030e-02
3.49          	2.721789e-01	6.267445e-03	2.861499e-02
3.50          	2.562899e-01	6.145834e-03	2.791976e-02
3.51          	2.436745e-01	5.991622e-03	2.723275e-02
3.52          	2.368702e-01	5.856323e-03	2.662747e-02
3.53          	2.293743e-01	5.724215e-03	2.617483e-02
3.54          	2.449307e-01	5.624187e-03	2.586886e-02
3.55          	2.773389e-01	5.564970e-03	2.564647e-02
3.56          	3.051504e-01	5.564642e-03	2.547639e-02
3.57          	2.812810e-01	5.571076e-03	2.547701e-02
3.58          	2.767140e-01	5.591590e-03	2.577138e-02
3.59          	2.740771e-01	5.624627e-03	2.605483e-02
3.60          	2.931481e-01	5.656119e-03	2.627001e-02
3.61          	2.831076e-01	5.677272e-03	2.679566e-02
3.62          	2.964538e-01	5.643028e-03	2.729462e-02
3.63          	3.128063e-01	5.576521e-03	2.781723e-02
3.64          	3.218405e-01	5.476790e-03	2.844784e-02
3.65          	3.436997e-01	5.360164e-03	2.917700e-02
3.66          	3.445725e-01	5.240234e-03	2.974498e-02
3.67          	3.506119e-01	5.126455e-03	3.026741e-02
3.68          	3.607549e-01	5.052919e-03	3.084618e-02
3.69          	3.664079e-01	4.998828e-03	3.141867e-02
3.70          	3.835535e-01	4.993595e-03	3.194235e-02
3.71          	3.833060e-01	5.013352e-03	3.245148e-02
3.72          	3.958940e-01	5.032212e-03	3.307291e-02
3.73          	3.875518e-01	5.034649e-03	3.345616e-02
3.74          	3.872600e-01	5.046094e-03	3.369940e-02
3.75          	3.901949e-01	5.069262e-03	3.401910e-02
3.76          	3.950965e-01	5.112814e-03	3.404291e-02
3.77          	4.044762e-01	5.221876e-03	3.410941e-02
3.78          	3.990050e-01	5.358990e-03	3.417355e-02
3.79          	4.004461e-01	5.488114e-03	3.398607e-02
3.80          	3.881146e-01	5.621868e-03	3.356482e-02
3.81          	3.823982e-01	5.692779e-03	3.306814e-02
3.82          	3.859080e-01	5.769195e-03	3.244939e-02
3.83          	3.858764e-01	5.808651e-03	3.167936e-02
3.84          	3.848385e-01	5.798260e-03	3.083681e-02
3.85          	3.816032e-01	5.800625e-03	3.008461e-02
3.86          	3.880963e-01	5.828765e-03	2.940534e-02
3.87          	3.848521e-01	5.871597e-03	2.889394e-02
3.88          	4.031673e-01	5.947631e-03	2.849317e-02
3.89          	4.083737e-01	6.043670e-03	2.804630e-02
3.90          	4.010411e-01	6.117504e-03	2.756654e-02
3.91          	3.889967e-01	6.179756e-03	2.724235e-02
3.92          	3.752509e-01	6.183421e-03	2.682916e-02
3.93          	3.620064e-01	6.157514e-03	2.655487e-02
3.94          	3.253089e-01	6.127161e-03	2.621756e-02
3.95          	2.913045e-01	6.064518e-03	2.586094e-02
3.96          	2.621858e-01	5.971665e-03	2.550236e-02
3.97          	2.397381e-01	5.855093e-03	2.497165e-02
3.98          	2.272995e-01	5.703954e-03	2.426534e-02
3.99          	2.263603e-01	5.537948e-03	2.362346e-02
4.00          	2.224918e-01	5.373881e-03	2.300168e-02
4.01          	2.056793e-01	5.246474e-03	2.260207e-02
4.02          	2.000364e-01	5.119449e-03	2.234282e-02
4.03          	1.969808e-01	5.012344e-03	2.216232e-02
4.04          	2.051382e-01	4.918783e-03	2.204454e-02
4.05          	2.192424e-01	4.857106e-03	2.200830e-02
4.06          	2.596670e-01	4.826011e-03	2.204739e-02
4.07          	2.815463e-01	4.867073e-03	2.217803e-02
4.08          	3.028343e-01	4.935512e-03	2.240152e-02
4.09          	2.825049e-01	4.989175e-03	2.272316e-02
4.10          	2.881663e-01	5.044176e-03	2.326159e-02
4.11          	2.922131e-01	5.110645e-03	2.382688e-02
4.12          	3.101377e-01	5.155293e-03	2.455295e-02
4.13          	3.201231e-01	5.176643e-03	2.537650e-02
4.14          	3.321098e-01	5.184265e-03	2.607392e-02
4.15          	3.288316e-01	5.176229e-03	2.689259e-02
4.16          	3.371899e-01	5.166136e-03	2.758535e-02
4.17          	3.481989e-01	5.178737e-03	2.824497e-02
4.18          	3.535213e-01	5.209195e-03	2.878073e-02
4.19          	3.636516e-01	5.275275e-03	2.914849e-02
4.20          	3.665138e-01	5.348196e-03	2.932268e-02
4.21          	3.703226e-01	5.466798e-03	2.934855e-02
4.22          	3.802288e-01	5.614162e-03	2.928105e-02
4.23          	3.763217e-01	5.741924e-03	2.899429e-02
4.24          	3.867768e-01	5.852611e-03	2.876813e-02
4.25          	3.681720e-01	5.927451e-03	2.829900e-02
4.26          	3.714913e-01	6.040247e-03	2.778652e-02
4.27          	3.604410e-01	6.138423e-03	2.724201e-02
4.28          	3.365742e-01	6.232178e-03	2.652674e-02
4.29          	3.361507e-01	6.332767e-03	2.599700e-02
4.30          	3.261122e-01	6.412472e-03	2.540689e-02
4.31          	3.087766e-01	6.508227e-03	2.486925e-02
4.32          	3.189441e-01	6.605959e-03	2.455096e-02
4.33          	3.391035e-01	6.715956e-03	2.432469e-02
4.34          	3.432693e-01	6.794890e-03	2.407925e-02
4.35          	3.440282e-01	6.844903e-03	2.377977e-02
4.36          	3.254106e-01	6.911413e-03	2.351240e-02
4.37          	3.131283e-01	6.975922e-03	2.326357e-02
4.38          	3.094437e-01	7.020462e-03	2.305165e-02
4.39          	2.818883e-01	7.050626e-03	2.289677e-02
4.40          	2.686020e-01	7.072863e-03	2.274682e-02
4.41          	2.394231e-01	7.050543e-03	2.251838e-02
4.42          	2.341104e-01	7.010156e-03	2.231305e-02
4.43          	2.104353e-01	6.943370e-03	2.213027e-02
4.44          	1.900939e-01	6.858908e-03	2.194140e-02
4.45          	1.852586e-01	6.739718e-03	2.166233e-02
4.46          	1.812706e-01	6.585856e-03	2.132080e-02
4.47          	1.747280e-01	6.404555e-03	2.101039e-02
4.48          	1.767262e-01	6.257657e-03	2.084174e-02
4.49          	1.787996e-01	6.144881e-03	2.075938e-02
4.50          	1.792051e-01	6.039321e-03	2.073660e-02
4.51          	1.875427e-01	5.961488e-03	2.083368e-02
4.52          	2.120589e-01	5.906418e-03	2.096047e-02
4.53          	2.463376e-01	5.879656e-03	2.118992e-02
4.54          	2.629854e-01	5.886231e-03	2.147080e-02
4.55          	2.709253e-01	5.907570e-03	2.185892e-02
4.56          	2.712368e-01	5.970174e-03	2.228339e-02
4.57          	2.807592e-01	6.060828e-03	2.284076e-02
4.58          	2.877896e-01	6.170981e-03	2.340420e-02
4.59          	2.859765e-01	6.289547e-03	2.404239e-02
4.60          	2.953796e-01	6.393712e-03	2.458533e-02
4.61          	3.076157e-01	6.472104e-03	2.514102e-02
4.62          	3.331105e-01	6.521885e-03	2.566091e-02
4.63          	3.469790e-01	6.558938e-03	2.604096e-02
4.64          	3.530544e-01	6.592891e-03	2.626267e-02
4.65          	3.517002e-01	6.599308e-03	2.635028e-02
4.66          	3.524858e-01	6.627030e-03	2.640233e-02
4.67          	3.465682e-01	6.682420e-03	2.619111e-02
4.68          	3.428538e-01	6.773169e-03	2.597262e-02
4.69          	3.375635e-01	6.939824e-03	2.571341e-02
4.70          	3.518750e-01	7.123286e-03	2.541916e-02
4.71          	3.257163e-01	7.303304e-03	2.506517e-02
4.72          	3.166735e-01	7.478455e-03	2.478076e-02
4.73          	3.071018e-01	7.672978e-03	2.458100e-02
4.74          	3.112058e-01	7.861399e-03	2.432274e-02
4.75          	3.025453e-01	8.026031e-03	2.401471e-02
4.76          	2.996065e-01	8.141442e-03	2.369645e-02
4.77          	2.803528e-01	8.206720e-03	2.327122e-02
4.78          	2.891690e-01	8.232252e-03	2.284873e-02
4.79          	2.639220e-01	8.237124e-03	2.241879e-02
4.80          	2.592035e-01	8.250992e-03	2.198280e-02
4.81          	2.413534e-01	8.249977e-03	2.160910e-02
4.82          	2.409102e-01	8.277588e-03	2.129521e-02
4.83          	2.323406e-01	8.297059e-03	2.098387e-02
4.84          	2.185071e-01	8.338710e-03	2.076897e-02
4.85          	2.081560e-01	8.370998e-03	2.061917e-02
4.86          	1.964146e-01	8.401418e-03	2.054508e-02
4.87          	1.928509e-01	8.409672e-03	2.045737e-02
4.88          	1.987948e-01	8.406162e-03	2.040583e-02
4.89          	1.861407e-01	8.356190e-03	2.029859e-02
4.90          	1.827698e-01	8.281684e-03	2.024835e-02
4.91          	1.824763e-01	8.169161e-03	2.016235e-02
4.92          	1.739944e-01	7.970402e-03	2.008338e-02
4.93          	1.650557e-01	7.771137e-03	1.999849e-02
4.94          	1.739020e-01	7.611757e-03	2.000826e-02
4.95          	1.796116e-01	7.480027e-03	2.009259e-02
4.96          	1.782184e-01	7.367673e-03	2.021059e-02
4.97          	1.812827e-01	7.266919e-03	2.034219e-02
4.98          	1.998609e-01	7.175858e-03	2.057087e-02
4.99          	2.226505e-01	7.097150e-03	2.088791e-02
5.00          	2.538569e-01	7.037613e-03	2.123146e-02
5.01          	2.757663e-01	6.980808e-03	2.162441e-02
5.02          	2.708785e-01	6.950414e-03	2.199773e-02
5.03          	2.927055e-01	6.963604e-03	2.238448e-02
5.04          	2.897491e-01	6.988440e-03	2.284383e-02
5.05          	2.785656e-01	7.035167e-03	2.324188e-02
5.06          	2.881212e-01	7.083277e-03	2.372419e-02
5.07          	2.849639e-01	7.094987e-03	2.409016e-02
5.08          	2.851248e-01	7.085633e-03	2.441144e-02
5.09          	3.121778e-01	7.072871e-03	2.455915e-02
5.10          	3.158297e-01	7.051162e-03	2.461153e-02
5.11          	3.165592e-01	7.044777e-03	2.460950e-02
5.12          	3.038915e-01	7.055181e-03	2.443395e-02
5.13          	3.004915e-01	7.147356e-03	2.420843e-02
5.14          	3.051065e-01	7.298951e-03	2.398608e-02
5.15          	3.055567e-01	7.495303e-03	2.373086e-02
5.16          	3.030285e-01	7.760690e-03	2.354156e-02
5.17          	2.926241e-01	8.036021e-03	2.337493e-02
5.18          	2.910048e-01	8.318796e-03	2.314782e-02
5.19          	2.946789e-01	8.547169e-03	2.301076e-02
5.20          	2.916940e-01	8.689066e-03	2.276258e-02
5.21          	2.984532e-01	8.786875e-03	2.251423e-02
5.22          	2.862419e-01	8.840543e-03	2.221379e-02
5.23          	2.779887e-01	8.885992e-03	2.189171e-02
5.24          	2.567055e-01	8.887135e-03	2.150456e-02
5.25          	2.430874e-01	8.901221e-03	2.113831e-02
5.26          	2.230345e-01	8.910444e-03	2.080868e-02
5.27          	2.289104e-01	8.937789e-03	2.055153e-02
5.28          	2.337468e-01	8.961027e-03	2.028333e-02
5.29          	2.284041e-01	8.990858e-03	2.008057e-02
5.30          	2.141551e-01	9.002669e-03	1.990243e-02
5.31          	2.005396e-01	9.011295e-03	1.981208e-02
5.32          	1.986738e-01	9.022197e-03	1.974016e-02
5.33          	1.922247e-01	9.016464e-03	1.970159e-02
5.34          	1.963619e-01	8.993739e-03	1.960871e-02
5.35          	1.982852e-01	8.904227e-03	1.951934e-02
5.36          	2.032988e-01	8.738318e-03	1.935654e-02
5.37          	2.012132e-01	8.559447e-03	1.926215e-02
5.38          	1.830725e-01	8.381823e-03	1.921833e-02
5.39          	1.790274e-01	8.234921e-03	1.926506e-02
5.40          	1.800882e-01	8.099152e-03	1.934222e-02
5.41          	1.755834e-01	7.989336e-03	1.950007e-02
5.42          	1.844685e-01	7.888473e-03	1.971681e-02
5.43          	2.058880e-01	7.808956e-03	2.001727e-02
5.44          	2.404013e-01	7.729546e-03	2.033915e-02
5.45          	2.673448e-01	7.663540e-03	2.076298e-02
5.46          	2.875606e-01	7.642696e-03	2.120007e-02
5.47          	2.857371e-01	7.612751e-03	2.158090e-02
5.48          	3.013497e-01	7.614485e-03	2.196628e-02
5.49          	2.865142e-01	7.625078e-03	2.233251e-02
5.50          	2.841987e-01	7.658106e-03	2.271021e-02
5.51          	2.796595e-01	7.657328e-03	2.307970e-02
5.52          	3.095151e-01	7.667761e-03	2.339141e-02
5.53          	3.310320e-01	7.663424e-03	2.358064e-02
5.54          	3.357986e-01	7.632325e-03	2.366320e-02