/*--------------------------------*- C++ -*----------------------------------*\
  =========                 |
  \\      /  F ield         | OpenFOAM: The Open Source CFD Toolbox
   \\    /   O peration     | Website:  https://openfoam.org
    \\  /    A nd           | Version:  7
     \\/     M anipulation  |
\*---------------------------------------------------------------------------*/
FoamFile
{
    version     2.0;
    format      ascii;
    class       volScalarField;
    location    "1123200.0";
    object      Cs;
}
// * * * * * * * * * * * * * * * * * * * * * * * * * * * * * * * * * * * * * //

dimensions      [1 -3 0 0 0 0 0];

internalField   nonuniform List<scalar> 
5346
(
0.141197
0.101135
0.0710736
0.048389
0.0315106
0.0193892
0.011125
0.00586011
0.00277839
0.00115289
0.000399286
0.000103626
1.24802e-05
-5.0809e-06
-3.97946e-06
-1.39228e-06
-2.42652e-07
2.21598e-08
2.79019e-08
7.98829e-09
6.05121e-10
-3.3684e-10
-1.26713e-10
-1.26958e-11
3.62926e-12
1.36866e-12
1.02864e-13
-3.85107e-14
-1.03344e-14
-1.77743e-16
3.25972e-16
4.83117e-17
-3.89388e-18
-1.80179e-18
-8.59819e-20
3.68174e-20
5.41619e-21
-3.65516e-22
-1.45267e-22
-3.4832e-24
2.56977e-24
2.34927e-25
-3.07026e-26
-5.77194e-27
1.77319e-28
9.89201e-29
2.239e-30
-1.31499e-30
-8.87238e-32
1.38062e-32
1.68641e-33
-1.08513e-34
-2.40302e-35
4.54573e-37
2.83058e-37
3.47533e-39
-2.87726e-39
-1.11762e-40
2.56229e-41
1.6737e-42
-2.0075e-43
-1.90943e-44
1.38279e-45
1.86604e-46
-8.23291e-48
-1.61193e-48
4.07183e-50
1.2663e-50
-1.44845e-52
-9.12008e-53
9.89484e-56
6.01169e-55
4.0207e-57
-3.66991e-57
-4.64957e-59
2.07011e-59
3.34134e-61
-1.07917e-61
-1.94886e-63
5.22202e-64
9.33997e-66
-2.3215e-66
-3.81454e-68
9.22024e-69
1.2676e-70
-3.24763e-71
-2.94898e-73
9.82631e-74
4.09851e-76
-2.50649e-76
3.81194e-79
5.22469e-79
-4.04601e-81
-7.95902e-82
1.02727e-83
7.64334e-85
-1.27509e-86
-3.19049e-88
4.92535e-90
0.142097
0.102409
0.0720072
0.0488491
0.0316636
0.0194246
0.0111515
0.00590796
0.00283658
0.00120316
0.000432441
0.00012063
1.9057e-05
-3.41824e-06
-3.91452e-06
-1.56902e-06
-3.3737e-07
-1.73168e-09
2.72811e-08
9.88488e-09
1.30804e-09
-2.58525e-10
-1.52883e-10
-2.46024e-11
2.294e-12
1.72169e-12
2.42278e-13
-2.8885e-14
-1.47369e-14
-1.27015e-15
3.31179e-16
8.75708e-17
9.02965e-19
-2.4542e-18
-2.9691e-19
3.32069e-20
1.05189e-20
1.75688e-22
-2.17924e-22
-2.10001e-23
2.79887e-24
5.97061e-25
-1.16923e-26
-1.11202e-26
-4.53612e-28
1.52749e-28
1.48768e-29
-1.51511e-30
-2.80513e-31
8.31069e-33
4.01952e-33
5.2203e-35
-4.70135e-35
-2.25325e-36
4.60362e-37
3.91423e-38
-3.73092e-39
-5.04431e-40
2.38396e-41
5.43209e-42
-9.6127e-44
-5.11896e-44
-2.05696e-46
4.29262e-46
9.28909e-48
-3.24461e-48
-1.21365e-49
2.22766e-50
1.1586e-51
-1.40798e-52
-9.39514e-54
8.17999e-55
6.58463e-56
-4.40006e-57
-4.11887e-58
2.21239e-59
2.34016e-60
-1.03316e-61
-1.18869e-62
4.52172e-64
5.45702e-65
-1.85762e-66
-2.20927e-67
7.17496e-69
7.89254e-70
-2.54898e-71
-2.47717e-72
8.00407e-74
6.32789e-75
-2.17735e-76
-1.28349e-77
4.92569e-79
1.98627e-80
-8.57943e-82
-1.93376e-83
1.01403e-84
9.15961e-87
-5.43494e-88
-2.93902e-91
0.142461
0.102969
0.0725933
0.0492395
0.0318178
0.0194292
0.0111093
0.00587831
0.00283304
0.00121546
0.000447281
0.000131012
2.41576e-05
-1.69303e-06
-3.62146e-06
-1.63885e-06
-4.08505e-07
-2.67824e-08
2.39541e-08
1.09377e-08
1.96509e-09
-1.28688e-10
-1.62052e-10
-3.58082e-11
5.57672e-14
1.84929e-12
3.88407e-13
-6.64098e-15
-1.74404e-14
-2.6729e-15
2.22883e-16
1.24477e-16
9.58853e-18
-2.59327e-18
-5.807e-19
6.82247e-21
1.56463e-20
1.33821e-21
-2.41323e-22
-4.99096e-23
1.0767e-24
1.07673e-24
5.54831e-26
-1.58922e-26
-1.96039e-27
1.48626e-28
3.96264e-29
-1.86626e-31
-5.93186e-31
-2.53456e-32
6.94956e-33
6.2459e-34
-6.28647e-35
-9.98401e-36
3.84045e-37
1.25965e-37
-2.13291e-40
-1.3439e-39
-3.56998e-41
1.23775e-41
6.53552e-43
-9.9209e-44
-8.03604e-45
6.91287e-46
8.07528e-47
-4.13617e-48
-6.97601e-49
2.04456e-50
5.35213e-51
-7.41482e-53
-3.70144e-53
9.06965e-56
2.34206e-55
1.42931e-57
-1.34848e-57
-1.63455e-59
7.07775e-60
1.16381e-61
-3.43825e-62
-6.29854e-64
1.50861e-64
2.84392e-66
-5.96214e-67
-1.00055e-68
2.13358e-69
2.73887e-71
-6.69277e-72
-5.45608e-74
1.76816e-74
5.19255e-77
-3.83484e-77
9.88266e-80
6.42119e-80
-5.49949e-82
-7.49258e-83
1.04272e-84
4.88349e-86
-8.09223e-88
-8.67571e-90
0.142373
0.102613
0.0722823
0.049012
0.0316207
0.01924
0.0109458
0.00576286
0.00276955
0.0011907
0.000443014
0.000133588
2.69994e-05
-2.29172e-07
-3.17303e-06
-1.59478e-06
-4.42595e-07
-4.74745e-08
1.8799e-08
1.0928e-08
2.41639e-09
1.94375e-11
-1.51463e-10
-4.31775e-11
-2.50433e-12
1.68807e-12
4.95642e-13
2.31906e-14
-1.70738e-14
-3.95125e-15
3.65752e-18
1.42319e-16
2.01406e-17
-1.85639e-18
-8.36493e-19
-4.44931e-20
1.76833e-20
2.94511e-21
-1.45819e-22
-8.10182e-23
-3.70092e-24
1.39919e-24
1.80019e-25
-1.3856e-26
-4.22928e-27
-2.81129e-29
6.92929e-29
4.42496e-30
-8.31189e-31
-1.08436e-31
6.59107e-33
1.79712e-33
-8.74772e-36
-2.33417e-35
-8.08339e-37
2.47466e-37
1.79627e-38
-2.14222e-39
-2.58531e-40
1.4464e-41
2.98201e-42
-6.12756e-44
-2.93187e-44
-1.28664e-46
2.50982e-46
6.15162e-48
-1.91858e-48
-8.14862e-50
1.32078e-50
7.8564e-52
-8.1903e-53
-6.30094e-54
4.60045e-55
4.38798e-56
-2.37601e-57
-2.70007e-58
1.1312e-59
1.48057e-60
-4.99672e-62
-7.31083e-63
2.08018e-64
3.19119e-65
-8.22709e-67
-1.23338e-67
3.05959e-69
4.13913e-70
-1.0552e-71
-1.18025e-72
3.24802e-74
2.75208e-75
-8.50147e-77
-4.96532e-78
1.76292e-79
6.53051e-81
-2.55806e-82
-5.39469e-84
2.20912e-85
1.66707e-87
-5.07878e-89
0.141765
0.101344
0.0709713
0.0479438
0.030841
0.0186981
0.0105828
0.00553518
0.00264205
0.00113029
0.000420686
0.000128427
2.73002e-05
7.50781e-07
-2.6589e-06
-1.45243e-06
-4.34906e-07
-5.95231e-08
1.31393e-08
9.92986e-09
2.55959e-09
1.44945e-10
-1.25235e-10
-4.47637e-11
-4.60054e-12
1.29646e-12
5.29676e-13
5.06837e-14
-1.3658e-14
-4.63754e-15
-2.55255e-16
1.31645e-16
2.86128e-17
-3.62578e-19
-9.43494e-19
-1.05007e-19
1.44286e-20
4.36498e-21
7.87652e-23
-9.78836e-23
-1.0681e-23
1.23325e-24
3.23689e-25
6.10285e-29
-6.20554e-27
-4.27871e-28
8.15718e-29
1.2301e-29
-6.03655e-31
-2.26145e-31
-2.93371e-33
3.12607e-33
1.90725e-34
-3.32647e-35
-3.9011e-36
2.54677e-37
5.68621e-38
-8.59763e-40
-6.70159e-40
-1.2956e-41
6.58712e-42
3.26414e-43
-5.51099e-44
-4.51439e-45
3.8895e-46
4.85732e-47
-2.225e-48
-4.41061e-49
9.12818e-51
3.49789e-51
-9.68977e-54
-2.4781e-53
-2.77332e-55
1.5707e-55
3.48551e-57
-9.03381e-58
-2.79542e-59
4.6795e-60
1.76311e-61
-2.20834e-62
-9.28057e-64
9.46294e-65
4.21403e-66
-3.67833e-67
-1.5753e-68
1.29046e-69
5.11071e-71
-3.90802e-72
-1.31199e-73
1.00889e-74
2.71719e-76
-2.09676e-77
-3.70192e-79
3.39246e-80
2.99206e-82
-3.61864e-83
-4.06587e-86
1.77795e-86
-5.37961e-89
0.140542
0.0990645
0.0686086
0.045965
0.0293814
0.0177121
0.00996096
0.00516894
0.00244417
0.00103545
0.000382371
0.000116573
2.52869e-05
1.18829e-06
-2.15186e-06
-1.24185e-06
-3.90278e-07
-6.13535e-08
8.19828e-09
8.25169e-09
2.38622e-09
2.17261e-10
-9.19392e-11
-4.06094e-11
-5.63272e-12
8.19228e-13
4.85086e-13
6.64714e-14
-8.63234e-15
-4.51133e-15
-4.52599e-16
9.75972e-17
3.15963e-17
1.2697e-18
-8.51213e-19
-1.48568e-19
6.88782e-21
4.90999e-21
3.4534e-22
-8.85883e-23
-1.67805e-23
5.1182e-25
4.11999e-25
2.27546e-26
-6.52611e-27
-9.15749e-28
5.68426e-29
2.00346e-29
2.93242e-31
-3.10692e-31
-2.23463e-32
3.50322e-33
5.09617e-34
-2.42461e-35
-8.07167e-36
-4.44522e-38
1.003e-37
4.62168e-39
-1.00132e-39
-8.94212e-41
7.84903e-42
1.2013e-42
-4.24248e-44
-1.30942e-44
3.5311e-47
1.21231e-46
2.73753e-48
-9.70738e-49
-4.38269e-50
6.74035e-51
4.61096e-52
-4.0869e-53
-3.92731e-54
2.15343e-55
2.83569e-56
-9.67082e-58
-1.79435e-58
3.56979e-60
1.00351e-60
-9.88731e-63
-4.90763e-63
1.54359e-65
2.11675e-65
1.80574e-68
-8.09879e-68
-1.98031e-70
2.67603e-70
5.57427e-73
-7.58073e-73
-2.86356e-76
1.73156e-75
-4.56005e-78
-3.16912e-78
1.99384e-80
4.10526e-81
-3.75177e-83
-3.03429e-84
3.03802e-86
7.58816e-88
0.1386
0.0956165
0.0650997
0.0430364
0.0272184
0.016258
0.00906059
0.00465433
0.00217491
0.000909039
0.000331007
9.97073e-05
2.15686e-05
1.18035e-06
-1.68954e-06
-9.96974e-07
-3.20651e-07
-5.44203e-08
4.64394e-09
6.29433e-09
1.97657e-09
2.2853e-10
-6.02614e-11
-3.25214e-11
-5.4622e-12
4.04284e-13
3.85263e-13
6.6858e-14
-3.9025e-15
-3.71125e-15
-5.21136e-16
5.59679e-17
2.84285e-17
2.34165e-18
-6.16567e-19
-1.57081e-19
-1.22811e-21
4.36904e-21
5.24946e-22
-5.84212e-23
-1.89542e-23
-4.12753e-25
3.95256e-25
4.29178e-26
-4.79813e-27
-1.23406e-27
1.74102e-30
2.29921e-29
1.50415e-30
-2.99008e-31
-4.30788e-32
2.25844e-33
7.84297e-34
8.11076e-36
-1.07732e-35
-6.31402e-37
1.13599e-37
1.30812e-38
-8.52038e-40
-1.89325e-40
2.5695e-42
2.1921e-42
4.83859e-44
-2.10002e-44
-1.12927e-45
1.675e-46
1.50872e-47
-1.09094e-48
-1.56278e-49
5.33828e-51
1.36208e-51
-1.23895e-53
-1.01463e-53
-9.64815e-56
6.64714e-56
1.63761e-57
-3.82807e-58
-1.45453e-59
1.95978e-60
9.80163e-62
-8.88952e-63
-5.39377e-64
3.6033e-65
2.48594e-66
-1.29651e-67
-9.76844e-69
4.0938e-70
3.22704e-71
-1.13425e-72
-8.5285e-74
2.6899e-75
1.77283e-76
-5.2296e-78
-2.67014e-79
7.58736e-81
2.51235e-82
-6.69273e-84
-9.57154e-86
2.17532e-87
0.135411
0.0904337
0.0601982
0.039114
0.0243778
0.0143691
0.00790532
0.00400637
0.00184424
0.000757841
0.000270769
7.99274e-05
1.69454e-05
9.13555e-07
-1.27974e-06
-7.48158e-07
-2.40801e-07
-4.22602e-08
2.49453e-09
4.40782e-09
1.45837e-09
1.9307e-10
-3.55467e-11
-2.30579e-11
-4.40856e-12
1.32469e-13
2.66711e-13
5.49484e-14
-7.40926e-16
-2.60538e-15
-4.62472e-16
2.21271e-17
2.12637e-17
2.53995e-18
-3.53647e-19
-1.32054e-19
-6.34737e-21
3.12493e-21
5.45539e-22
-2.39674e-23
-1.66107e-23
-1.05852e-24
2.93129e-25
5.03073e-26
-2.08899e-27
-1.22212e-27
-5.24643e-29
1.97399e-29
2.35932e-30
-1.94312e-31
-5.30486e-32
-2.23463e-35
8.47473e-34
4.77433e-35
-1.00419e-35
-1.19581e-36
8.04497e-38
1.97132e-38
-1.54285e-40
-2.51165e-40
-8.39998e-42
2.5827e-42
1.89468e-43
-2.10598e-44
-2.67309e-45
1.24683e-46
2.9538e-47
-3.01078e-49
-2.7186e-49
-4.46638e-51
2.13301e-51
8.51096e-53
-1.43885e-53
-9.05962e-55
8.29662e-56
7.54446e-57
-4.02891e-58
-5.16305e-59
1.60023e-60
3.01871e-61
-4.81103e-63
-1.53809e-63
8.07512e-66
6.73816e-66
1.53334e-68
-2.51803e-68
-1.84662e-70
8.06074e-71
8.21304e-73
-2.14714e-73
-2.21402e-75
4.59485e-76
3.86674e-78
-7.6571e-79
-3.70823e-81
8.42825e-82
9.54205e-85
-4.87971e-85
1.00832e-87
0.130406
0.08303
0.0537374
0.0342202
0.0209454
0.0121308
0.00655847
0.00326504
0.00147475
0.000593533
0.00020719
5.95638e-05
1.22207e-05
5.78111e-07
-9.19303e-07
-5.19625e-07
-1.64329e-07
-2.8877e-08
1.35726e-09
2.8188e-09
9.55473e-10
1.36269e-10
-1.90359e-11
-1.44355e-11
-3.01118e-12
3.17812e-15
1.60859e-13
3.77029e-14
6.6208e-16
-1.56339e-15
-3.32137e-16
2.85159e-18
1.33131e-17
2.04844e-18
-1.53489e-19
-9.03831e-20
-7.38785e-21
1.79855e-21
4.33081e-22
-1.80883e-25
-1.15457e-23
-1.19052e-24
1.65563e-25
4.33904e-26
1.22813e-28
-9.29728e-28
-7.75194e-29
1.26678e-29
2.42221e-30
-6.54422e-32
-4.76073e-32
-1.91809e-33
6.73615e-34
7.02302e-35
-6.496e-36
-1.39523e-36
2.1917e-38
2.04263e-38
6.65868e-40
-2.34286e-40
-1.84072e-41
2.05973e-42
2.93907e-43
-1.20604e-44
-3.61354e-45
1.92966e-48
3.62974e-47
1.09816e-48
-3.04135e-49
-1.8239e-50
2.11499e-51
2.01753e-52
-1.19251e-53
-1.79249e-54
4.88491e-56
1.32628e-56
-8.17351e-59
-8.4786e-59
-8.28e-61
4.66939e-61
1.06137e-62
-2.24536e-63
-7.54091e-65
9.37873e-66
3.92094e-67
-3.38245e-68
-1.62152e-69
1.02754e-70
5.34232e-72
-2.67126e-73
-1.40888e-74
5.63667e-76
2.73636e-77
-9.22948e-79
-3.7202e-80
1.06389e-81
2.98742e-83
-6.5749e-85
-8.10876e-87
0.12309
0.0734392
0.0458506
0.0285172
0.0170805
0.00967648
0.00511595
0.00248989
0.00109863
0.000431324
0.000146547
4.08503e-05
8.04902e-06
3.05208e-07
-6.10096e-07
-3.28917e-07
-1.00867e-07
-1.73319e-08
7.702e-10
1.62539e-09
5.50883e-10
8.12347e-11
-9.2859e-12
-7.90506e-12
-1.74233e-12
-3.23639e-14
8.38465e-14
2.16641e-14
8.70895e-16
-7.96677e-16
-1.95676e-16
-3.92416e-18
6.95184e-18
1.30089e-18
-4.32569e-20
-5.05971e-20
-5.67873e-21
8.20317e-22
2.7191e-22
8.93302e-24
-6.42453e-24
-9.22648e-25
6.79097e-26
2.89192e-26
1.08272e-27
-5.51765e-28
-6.95037e-29
5.89426e-30
1.83691e-30
2.01262e-32
-3.2598e-32
-2.5231e-33
4.01283e-34
6.6254e-35
-2.56922e-36
-1.16786e-36
-2.39102e-38
1.5596e-38
1.09098e-39
-1.58069e-40
-2.12062e-41
1.06055e-42
2.98023e-43
-6.27168e-46
-3.34883e-45
-1.13071e-46
3.08965e-47
2.13396e-48
-2.30899e-49
-2.64882e-50
1.31433e-51
2.61023e-52
-4.21122e-54
-2.14228e-54
-1.57822e-56
1.49984e-56
3.986e-58
-8.97546e-59
-3.96363e-60
4.62204e-61
2.85769e-62
-2.03867e-63
-1.65108e-64
7.64612e-66
7.95036e-67
-2.3947e-68
-3.13631e-69
6.20688e-71
1.00181e-71
-1.33763e-73
-2.59618e-74
2.41904e-76
5.17863e-77
-3.66142e-79
-7.30451e-80
4.61982e-82
6.11688e-83
-3.46502e-85
-1.5812e-86
0.109991
0.0614462
0.0369338
0.02235
0.0130316
0.00718675
0.00369846
0.00175179
0.00075194
0.000286939
9.45924e-05
2.54972e-05
4.81498e-06
1.41722e-07
-3.62248e-07
-1.85819e-07
-5.48488e-08
-9.07495e-09
4.2784e-10
8.26737e-10
2.75027e-10
4.07497e-11
-4.07072e-12
-3.71631e-12
-8.44576e-13
-2.71294e-14
3.70671e-14
1.03103e-14
5.92931e-16
-3.38364e-16
-9.40171e-17
-4.01613e-18
2.97627e-18
6.57898e-19
-1.38055e-21
-2.29164e-20
-3.2558e-21
2.8261e-22
1.35607e-22
8.37169e-24
-2.83052e-24
-5.38226e-25
1.67076e-26
1.50782e-26
1.03581e-27
-2.54106e-28
-4.49127e-29
1.73305e-30
1.06441e-30
4.54077e-32
-1.71418e-32
-2.01452e-33
1.73305e-34
4.54108e-35
-1.42624e-37
-7.34895e-37
-3.82435e-38
8.91683e-39
9.98247e-40
-7.54633e-41
-1.68404e-41
2.29066e-43
2.19636e-43
6.12751e-45
-2.29678e-45
-1.52528e-46
1.91631e-47
2.21755e-48
-1.18883e-49
-2.46668e-50
3.73369e-52
2.26839e-52
2.75463e-54
-1.7595e-54
-6.23612e-56
1.16634e-56
6.76255e-58
-6.54544e-59
-5.48582e-60
3.03351e-61
3.57608e-62
-1.12322e-63
-1.95318e-64
3.04382e-66
8.90123e-67
-4.21489e-69
-3.46442e-69
-9.97897e-72
1.12566e-71
8.57886e-74
-2.93182e-74
-2.82778e-76
5.86222e-77
5.36007e-79
-8.59866e-80
-6.63103e-82
7.26613e-83
2.77781e-85
-2.03854e-86
0.0878443
0.0471998
0.0273489
0.0160709
0.00908846
0.00485932
0.00242362
0.00111219
0.000462423
0.000170926
5.46359e-05
1.43075e-05
2.62012e-06
7.47871e-08
-1.84026e-07
-9.10058e-08
-2.58552e-08
-4.09792e-09
2.05203e-10
3.58357e-10
1.15668e-10
1.69039e-11
-1.53292e-12
-1.44927e-12
-3.33782e-13
-1.40826e-14
1.33635e-14
3.9441e-15
2.84245e-16
-1.14701e-16
-3.58245e-17
-2.25428e-18
1.00084e-18
2.60227e-19
6.4919e-21
-8.10217e-21
-1.41964e-21
6.2841e-23
5.25617e-23
4.76185e-24
-9.43858e-25
-2.3932e-25
-7.45617e-28
6.06501e-27
6.12681e-28
-8.71392e-29
-2.17919e-29
7.74284e-32
4.71395e-31
3.4841e-32
-6.77868e-33
-1.14085e-33
4.80764e-35
2.33461e-35
6.14927e-37
-3.49138e-37
-2.95348e-38
3.78083e-39
6.34193e-40
-2.28003e-41
-9.8084e-42
-1.40644e-43
1.19807e-43
6.72019e-45
-1.16346e-45
-1.20764e-46
8.48371e-48
1.57561e-48
-3.48069e-50
-1.65254e-50
-1.6205e-52
1.44694e-52
5.25232e-54
-1.06544e-54
-6.70888e-56
6.53257e-57
6.26582e-58
-3.25768e-59
-4.66752e-60
1.22646e-61
2.92638e-62
-2.49003e-64
-1.5424e-64
-6.63377e-67
6.98307e-67
9.57388e-69
-2.64286e-69
-5.47059e-71
8.41942e-72
2.09945e-73
-2.17753e-74
-5.69488e-76
4.35484e-77
1.09567e-78
-6.25775e-80
-1.20389e-81
5.58586e-83
7.22942e-85
-1.82037e-86
0.0637804
0.0313792
0.0178976
0.0102551
0.00561649
0.00290517
0.00140004
0.000619965
0.000248441
8.8413e-05
2.71899e-05
6.84331e-06
1.19608e-06
2.74788e-08
-8.00912e-08
-3.75307e-08
-1.01759e-08
-1.5518e-09
7.14294e-11
1.24318e-10
3.88571e-11
5.56223e-12
-4.45054e-13
-4.36479e-13
-1.01019e-13
-5.2565e-15
3.58605e-15
1.12698e-15
9.90577e-17
-2.76964e-17
-1.00388e-17
-8.66772e-19
2.34305e-19
7.5391e-20
4.18103e-21
-2.01895e-21
-4.53494e-22
1.30659e-24
1.47208e-23
1.87998e-24
-2.06312e-25
-7.80972e-26
-2.99148e-27
1.76226e-27
2.53768e-28
-1.92445e-29
-7.79255e-30
-2.34221e-31
1.52651e-31
1.70648e-32
-1.86136e-33
-4.70996e-34
3.26467e-36
8.88506e-36
4.97595e-37
-1.21895e-37
-1.52046e-38
1.10488e-39
2.91375e-40
-1.70873e-42
-4.21834e-42
-1.6995e-43
4.83323e-44
4.19689e-45
-4.24784e-46
-6.58833e-47
2.42415e-48
8.05596e-49
1.41975e-51
-8.0867e-51
-2.57615e-52
6.7348e-53
4.11295e-54
-4.68599e-55
-4.46582e-56
2.59583e-57
3.86432e-58
-1.04985e-59
-2.78407e-60
1.82899e-62
1.69355e-62
1.44694e-64
-8.78203e-65
-1.81743e-66
3.86818e-67
1.17629e-68
-1.43742e-69
-5.47054e-71
4.48106e-72
1.93467e-73
-1.14047e-74
-5.10206e-76
2.31531e-77
9.6668e-79
-3.38676e-80
-1.18345e-81
3.06481e-83
6.28743e-85
-9.80269e-87
0.0404623
0.0165488
0.00993725
0.00554808
0.00294729
0.0014764
0.000686571
0.000292413
0.000112314
3.81646e-05
1.11531e-05
2.64245e-06
4.20195e-07
-1.43879e-09
-3.04594e-08
-1.27549e-08
-3.17773e-09
-4.44672e-10
2.28125e-11
3.25831e-11
9.42314e-12
1.27204e-12
-8.3639e-14
-8.425e-14
-1.93378e-14
-1.35643e-15
5.07456e-16
1.8608e-16
2.27866e-17
-2.67554e-18
-1.55844e-18
-2.2051e-19
1.90506e-20
1.24737e-20
1.51645e-21
-2.13461e-22
-8.97976e-23
-5.99247e-24
2.21593e-24
4.93503e-25
-8.05911e-27
-1.59983e-26
-1.56051e-27
2.84387e-28
7.09843e-29
-6.14849e-31
-1.83727e-30
-1.44096e-31
3.06423e-32
5.64674e-33
-2.38279e-34
-1.34051e-34
-4.39601e-36
2.28962e-36
2.23978e-37
-2.74005e-38
-5.3999e-39
1.57035e-40
9.42259e-41
2.31246e-42
-1.27606e-42
-9.1525e-44
1.34407e-44
1.76797e-45
-9.9364e-47
-2.53893e-47
2.394e-49
2.93357e-49
7.19237e-51
-2.81415e-51
-1.56156e-52
2.22767e-53
2.03671e-54
-1.42332e-55
-2.03516e-56
6.63527e-58
1.67352e-58
-1.37751e-60
-1.17421e-60
-1.16748e-62
7.00813e-63
1.71367e-64
-3.54506e-65
-1.29517e-66
1.5414e-67
7.24145e-69
-5.62905e-70
-3.15384e-71
1.68511e-72
1.07424e-73
-4.22833e-75
-2.79597e-76
8.5698e-78
5.41873e-79
-1.25324e-80
-6.715e-82
1.21161e-83
3.97616e-85
-4.01506e-87
0.0195351
0.00598813
0.00449293
0.00235645
0.00123657
0.000602007
0.000270179
0.000110218
4.02126e-05
1.28517e-05
3.48184e-06
7.41468e-07
9.36241e-08
-8.8849e-09
-9.57988e-09
-3.21515e-09
-6.62474e-10
-7.09956e-11
6.81255e-12
4.71029e-12
9.61203e-13
8.78987e-14
9.17202e-16
8.10963e-16
2.79468e-16
-1.68288e-16
-1.00781e-16
-1.76682e-17
1.70286e-18
1.36672e-18
2.01063e-19
-2.44901e-20
-1.29516e-20
-1.1141e-21
3.27823e-22
8.61441e-23
-2.14709e-25
-2.91014e-24
-3.21315e-25
5.71526e-26
1.53476e-26
-2.56655e-28
-4.57403e-28
-3.08522e-29
9.82148e-30
1.5384e-30
-1.37517e-31
-4.72621e-32
7.20913e-35
1.09381e-33
6.66058e-35
-1.95763e-35
-2.52989e-36
2.4912e-37
6.25495e-38
-1.34457e-39
-1.18809e-39
-3.58338e-41
1.80401e-41
1.40467e-42
-2.15159e-43
-3.00332e-44
1.81925e-45
4.83315e-46
-5.50919e-48
-6.31254e-48
-1.52462e-49
6.84165e-50
3.8657e-51
-6.14885e-52
-5.7501e-53
4.42687e-54
6.56557e-55
-2.3357e-56
-6.19486e-57
5.50533e-59
4.88339e-59
5.57784e-61
-3.32571e-61
-9.4302e-63
1.93915e-63
8.35723e-65
-9.55007e-66
-5.49045e-67
4.05549e-68
2.85553e-69
-1.43787e-70
-1.18732e-71
4.13717e-73
4.01392e-74
-1.00184e-75
-1.03284e-76
1.96149e-78
1.97799e-79
-2.9109e-81
-2.53521e-82
2.92559e-84
1.50617e-85
-9.57114e-88
0.00533574
0.00122785
0.00149346
0.000672687
0.000376564
0.000176689
7.66214e-05
2.95058e-05
9.9452e-06
2.8463e-06
6.52934e-07
1.00264e-07
8.19611e-12
-5.77383e-09
-2.01136e-09
-3.47198e-10
-7.41434e-12
1.04276e-11
1.0361e-12
-1.01931e-12
-4.80897e-13
-7.94716e-14
1.09745e-14
9.07521e-15
1.99957e-15
2.37045e-17
-1.02073e-16
-2.60721e-17
-1.12665e-18
9.33826e-19
2.38266e-19
7.46437e-21
-7.95831e-21
-1.63641e-21
2.1142e-23
5.92919e-23
7.83041e-24
-8.16461e-25
-3.42804e-25
-1.73301e-26
7.67914e-27
1.28741e-27
-6.92139e-29
-3.87045e-29
-1.80912e-30
7.39054e-31
9.88269e-32
-8.4164e-33
-2.62555e-33
-7.07348e-36
4.99445e-35
2.98615e-36
-7.30254e-37
-8.83561e-38
8.06542e-39
1.78136e-39
-5.4299e-41
-2.94617e-41
-2.43642e-43
4.2142e-43
1.63196e-44
-5.3313e-45
-3.7361e-46
6.00455e-47
6.35099e-48
-5.81381e-49
-9.04268e-50
4.68077e-51
1.1146e-51
-2.59058e-53
-1.21806e-53
2.94968e-57
1.16016e-55
2.30897e-57
-9.94355e-58
-3.61486e-59
7.2045e-60
3.91772e-61
-4.59992e-62
-3.35906e-63
2.53921e-64
2.34852e-65
-1.15972e-66
-1.36953e-67
4.52477e-69
6.67872e-70
-1.45357e-71
-2.66687e-72
3.50017e-74
8.77653e-75
-6.93184e-77
-2.29189e-77
1.09231e-79
4.24431e-80
-1.69866e-82
-5.62009e-83
2.20665e-85
3.38715e-86
-2.75903e-89
0.000153734
0.000127155
0.000229162
8.09925e-05
6.29193e-05
2.58046e-05
1.07359e-05
3.40103e-06
8.0575e-07
7.93349e-08
-4.05972e-08
-2.84663e-08
-9.80279e-09
-1.81605e-09
5.79282e-11
1.74755e-10
6.45997e-11
1.11628e-11
-6.74161e-13
-1.06825e-12
-3.3071e-13
-4.15673e-14
6.92447e-15
4.45847e-15
8.89899e-16
9.54837e-18
-4.10833e-17
-1.03662e-17
-5.42487e-19
3.26968e-19
9.00387e-20
4.68856e-21
-2.57772e-21
-6.30462e-22
-1.4094e-23
1.94825e-23
3.42726e-24
-1.34951e-25
-1.24995e-25
-1.20487e-26
2.14946e-27
5.84266e-28
6.38936e-30
-1.44664e-29
-1.59073e-30
1.98081e-31
5.45895e-32
2.07705e-34
-1.15662e-33
-9.38405e-35
1.63393e-35
2.94189e-36
-1.08191e-37
-5.95238e-38
-1.72509e-39
8.91936e-40
7.62638e-41
-9.84891e-42
-1.62976e-42
6.52711e-44
2.53176e-44
2.1681e-46
-3.17019e-46
-1.47817e-47
3.23284e-48
2.81828e-49
-2.64036e-50
-3.77061e-51
1.56377e-52
4.10016e-53
-4.06978e-55
-3.74639e-55
-5.47844e-57
2.98699e-57
9.51972e-59
-2.031e-59
-1.03072e-60
1.22068e-61
8.37029e-63
-6.52453e-64
-5.50846e-65
3.06095e-66
3.09652e-67
-1.25763e-68
-1.4939e-69
4.59875e-71
5.9699e-72
-1.44131e-73
-1.99058e-74
3.80799e-76
5.55054e-77
-1.12516e-78
-1.18919e-79
1.51938e-81
1.71488e-82
-2.72057e-84
-1.50156e-85
1.80509e-87
8.5393e-89
-7.88459e-05
-2.68355e-05
-3.45242e-05
-1.81307e-05
-6.56499e-06
-5.11162e-06
-2.38542e-06
-1.32031e-06
-6.00232e-07
-2.41554e-07
-8.11031e-08
-2.17463e-08
-3.8991e-09
-4.50911e-11
2.80765e-10
1.22871e-10
2.98732e-11
3.32066e-12
-6.7216e-13
-4.37163e-13
-1.05641e-13
-9.1384e-15
2.79944e-15
1.25471e-15
2.07367e-16
-3.68471e-18
-1.00959e-17
-2.26206e-18
-1.00628e-19
6.94314e-20
1.8752e-20
1.15046e-21
-4.83107e-22
-1.33047e-22
-6.35253e-24
3.60445e-24
8.00166e-25
2.11285e-27
-2.55857e-26
-3.5604e-27
3.1571e-28
1.4274e-28
7.56962e-30
-3.06052e-30
-5.16425e-31
2.67312e-32
1.51147e-32
7.11987e-34
-2.82228e-34
-3.84147e-35
3.0308e-36
1.00223e-36
1.02783e-38
-1.82547e-38
-1.34581e-39
2.39631e-40
3.64979e-41
-1.8955e-42
-6.74239e-43
-5.06839e-45
9.54039e-45
5.12197e-46
-1.06508e-46
-1.11165e-47
8.88852e-49
1.67956e-49
-4.18012e-51
-2.00719e-51
-2.1966e-53
1.98886e-53
8.09475e-55
-1.63308e-55
-1.17992e-56
1.11471e-57
1.23086e-58
-5.92566e-60
-1.04366e-60
2.11596e-62
7.46836e-63
-7.08717e-66
-4.52506e-65
-6.07603e-67
2.32715e-67
5.95158e-69
-1.03514e-69
-3.57227e-71
3.8433e-72
1.61268e-73
-1.16992e-74
-5.73282e-76
3.02296e-77
1.4419e-78
-6.14454e-80
-2.93469e-81
9.00335e-83
3.58423e-84
-8.46274e-86
-2.0763e-87
4.21738e-89
0.000101431
-7.92035e-05
7.12295e-06
-1.35895e-05
-6.58284e-06
-4.06537e-06
-1.86787e-06
-8.52323e-07
-3.20949e-07
-1.073e-07
-2.9181e-08
-5.88123e-09
-4.61412e-10
2.34716e-10
1.32367e-10
3.82408e-11
6.44007e-12
1.4396e-13
-2.95461e-13
-1.00258e-13
-1.52005e-14
2.89115e-16
6.97463e-16
1.53762e-16
9.31185e-18
-2.98985e-18
-8.36681e-19
-7.49772e-20
5.05362e-21
2.09864e-21
3.97566e-22
9.38738e-23
9.54442e-24
-4.09818e-24
-1.52095e-24
-7.87554e-26
5.64429e-26
1.17864e-26
-5.91405e-28
-5.11548e-28
-4.03084e-29
1.25396e-29
2.59492e-30
-1.20635e-31
-8.66413e-32
-4.41811e-33
1.92672e-33
2.70992e-34
-2.58768e-35
-8.35288e-36
-9.67523e-39
1.81689e-37
1.21363e-38
-2.89184e-39
-4.101e-40
3.02528e-41
8.9944e-42
-3.96017e-44
-1.5102e-43
-6.74676e-45
1.98796e-45
1.89662e-46
-1.9916e-47
-3.40693e-48
1.25114e-49
4.75352e-50
2.08808e-52
-5.42504e-52
-2.01992e-53
5.14798e-54
3.60231e-55
-3.98248e-56
-4.44784e-57
2.41715e-58
4.38831e-59
-9.66878e-61
-3.57652e-61
-1.2175e-64
2.49951e-63
4.48219e-65
-1.49053e-65
-4.83854e-67
7.49141e-68
3.44793e-69
-3.26403e-70
-1.8694e-71
1.18283e-72
7.98072e-74
-3.48315e-75
-2.74931e-76
8.71663e-78
7.10591e-79
-1.70799e-80
-1.37908e-81
2.49824e-83
1.767e-84
-2.44571e-86
-1.04748e-87
1.03791e-89
0.00124789
-0.000305176
5.3392e-05
-1.08062e-05
-3.30722e-07
-1.19034e-06
-4.79242e-07
-2.17114e-07
-7.21185e-08
-2.07256e-08
-4.05642e-09
-2.59634e-10
2.1594e-10
1.10246e-10
2.99238e-11
4.45604e-12
-1.38915e-13
-2.58109e-13
-6.32198e-14
-2.24277e-15
3.04026e-15
8.53363e-16
2.14238e-17
-4.68456e-17
-1.2887e-17
-4.97668e-19
5.60782e-19
1.50573e-19
6.11029e-21
-5.47011e-21
-1.32069e-21
-2.16557e-23
4.72255e-23
8.59909e-24
-3.23693e-25
-3.38738e-25
-3.69815e-26
5.69627e-27
1.82047e-27
4.87849e-29
-4.50572e-29
-5.95606e-30
5.68225e-31
1.97964e-31
3.58383e-33
-4.1844e-33
-3.91699e-34
6.06711e-35
1.18768e-35
-4.74916e-37
-2.51739e-37
-3.87623e-39
4.32385e-39
2.52113e-40
-6.38818e-41
-6.5277e-42
8.2696e-43
1.33136e-43
-8.94326e-45
-2.35169e-45
6.74405e-47
3.70015e-47
1.40347e-49
-5.17159e-49
-1.70896e-50
6.26361e-51
3.91952e-52
-6.52905e-53
-6.27984e-54
5.65148e-55
8.17657e-56
-3.77556e-57
-8.82496e-58
1.4745e-59
8.29432e-60
3.92553e-62
-6.51078e-62
-1.51669e-63
4.46987e-64
1.77794e-65
-2.63582e-66
-1.45414e-67
1.30331e-68
9.29053e-70
-5.54435e-71
-4.83033e-72
1.97388e-73
2.00998e-74
-5.54436e-76
-6.83778e-77
1.30591e-78
1.81491e-79
-2.41939e-81
-3.42464e-82
3.55843e-84
4.5668e-85
-3.67239e-87
-2.74833e-88
3.0781e-91
0.004842
-0.000483612
6.23595e-05
-8.9596e-06
1.25544e-06
-2.68534e-07
-9.69175e-09
-1.54927e-08
-7.72738e-10
8.69646e-10
8.6104e-10
3.73223e-10
1.12655e-10
1.9042e-11
-4.85817e-13
-1.60566e-12
-5.6875e-13
-9.26353e-14
5.76688e-15
8.26416e-15
2.3423e-15
2.24132e-16
-6.9418e-17
-3.22272e-17
-5.09795e-18
2.98997e-19
3.16804e-19
6.08465e-20
-2.10692e-22
-2.6143e-21
-5.2464e-22
3.17016e-25
1.987e-23
3.49573e-24
-1.12247e-25
-1.36918e-25
-1.71649e-26
1.88372e-27
7.86683e-28
4.60996e-29
-1.68755e-29
-3.2425e-30
8.93245e-32
9.26228e-32
7.06269e-33
-1.53312e-33
-3.00861e-34
8.0649e-36
7.06152e-36
3.86707e-37
-1.11439e-37
-1.51678e-38
1.02665e-39
3.33546e-40
2.80156e-42
-5.30758e-42
-3.3525e-43
6.34491e-44
8.06959e-45
-5.1993e-46
-1.31387e-46
1.18506e-48
1.70247e-48
4.88394e-50
-1.80589e-50
-1.14904e-51
1.57852e-52
1.62265e-53
-1.09953e-54
-1.80923e-55
5.87924e-57
1.67848e-57
-1.41407e-59
-1.38084e-59
-5.96802e-62
9.72838e-62
1.68521e-63
-6.38819e-64
-1.56717e-65
3.86598e-66
1.05631e-67
-2.16394e-68
-6.2698e-70
1.08715e-70
3.2246e-72
-4.99049e-73
-1.33027e-74
1.90348e-75
5.07686e-77
-6.20159e-78
-1.54353e-79
1.80926e-80
3.51912e-82
-3.09703e-83
-5.22207e-85
4.72305e-86
4.21412e-88
-2.98684e-89
-9.45824e-91
0.0109174
-0.000457388
4.21836e-05
-5.15645e-06
8.03848e-07
-8.2756e-08
3.88123e-08
7.59199e-09
4.93458e-09
1.67638e-09
5.57049e-10
1.28274e-10
1.59278e-11
-3.70888e-12
-2.79993e-12
-9.18397e-13
-1.68762e-13
-3.57257e-15
9.1445e-15
3.36451e-15
5.54023e-16
-1.45947e-17
-3.29142e-17
-8.39338e-18
-6.57603e-19
2.14822e-19
8.07144e-20
9.83704e-21
-1.0794e-21
-6.25948e-22
-8.94035e-23
5.49797e-24
4.36584e-24
6.22146e-25
-4.17766e-26
-2.87298e-26
-3.34308e-27
4.22116e-28
1.70344e-28
1.09495e-29
-3.67324e-30
-7.86104e-31
8.97036e-33
2.24596e-32
2.19459e-33
-3.45186e-34
-8.73429e-35
7.63155e-38
1.9883e-36
1.65985e-37
-2.89812e-38
-5.57275e-39
1.66278e-40
1.16897e-40
4.67227e-42
-1.76488e-42
-1.83991e-43
1.82951e-44
3.89247e-45
-7.59009e-47
-6.00474e-47
-1.8226e-48
7.2915e-49
5.50247e-50
-6.82829e-51
-9.31715e-52
4.40112e-53
1.18549e-53
-5.92982e-56
-1.23203e-55
-3.19445e-57
1.05468e-57
5.86225e-59
-7.5709e-60
-6.5845e-61
4.30243e-62
5.8524e-63
-1.85247e-64
-4.2918e-65
4.27357e-67
2.63909e-67
1.49601e-69
-1.37019e-69
-2.49782e-71
6.1686e-72
1.66254e-73
-2.30099e-74
-7.96769e-76
7.12083e-77
2.90088e-78
-1.85343e-79
-7.12201e-81
3.73301e-82
1.50038e-83
-5.50492e-85
-1.7812e-86
5.11806e-88
1.02441e-89
-4.73038e-91
0.00230094
-3.99878e-05
8.03602e-07
3.05443e-08
5.09101e-08
-2.32563e-09
1.23825e-08
2.77991e-09
1.59459e-09
4.17069e-10
1.03752e-10
8.39205e-12
-4.64006e-12
-2.95747e-12
-9.11982e-13
-1.73983e-13
-6.92107e-15
7.6486e-15
2.9682e-15
5.24007e-16
-2.97661e-18
-2.64401e-17
-6.6749e-18
-4.40356e-19
1.84856e-19
5.77972e-20
4.67251e-21
-1.22219e-21
-3.94639e-22
-2.89518e-23
7.60981e-24
2.06159e-24
1.08202e-25
-3.47807e-26
-7.41329e-27
-4.62627e-28
4.52268e-29
2.12918e-29
5.60674e-30
5.63846e-31
-1.63701e-31
-5.62435e-32
-1.99459e-33
1.8082e-33
2.88511e-34
-2.50947e-35
-1.11298e-35
-3.82971e-37
2.58241e-37
3.21324e-38
-3.59337e-39
-1.0119e-39
3.98142e-42
2.13873e-41
1.34595e-42
-3.24797e-43
-4.40739e-44
3.13702e-45
9.18145e-46
-2.66578e-48
-1.43307e-47
-6.58887e-49
1.74753e-49
1.67889e-50
-1.59649e-51
-2.77157e-52
8.83246e-54
3.54972e-54
2.54084e-56
-3.72616e-56
-1.44076e-57
3.21183e-58
2.28506e-59
-2.27252e-60
-2.53516e-61
1.23254e-62
2.2403e-63
-4.30813e-65
-1.66102e-65
-2.23749e-68
1.03731e-67
1.77804e-69
-5.42891e-70
-1.65501e-71
2.45342e-72
1.00859e-73
-9.21068e-75
-4.61406e-76
2.81801e-77
1.67259e-78
-7.22727e-80
-4.38064e-81
1.4224e-82
8.82924e-84
-2.11512e-85
-1.14182e-86
1.99245e-88
6.85102e-90
-1.22139e-91
-0.000217209
1.3536e-05
-1.1135e-06
1.3823e-07
-2.55044e-08
6.26818e-09
6.37931e-10
3.78675e-10
1.48586e-10
7.90356e-12
-7.01247e-12
-6.72242e-12
-2.55295e-12
-6.38799e-13
-7.48875e-14
1.39829e-14
1.0485e-14
2.6554e-15
2.47504e-16
-8.83326e-17
-4.25105e-17
-6.98034e-18
4.57403e-19
5.02448e-19
1.04387e-19
3.11519e-22
-4.88187e-21
-1.1009e-21
-2.27237e-23
4.14564e-23
8.90962e-24
4.06981e-26
-3.20721e-25
-5.44917e-26
2.30733e-27
2.11451e-27
2.27462e-28
-3.31446e-29
-1.07602e-29
-3.62195e-31
2.4478e-31
3.49415e-32
-2.45562e-33
-1.03669e-33
-3.61735e-35
1.87553e-35
2.13794e-36
-2.0937e-37
-5.16078e-38
7.25133e-40
8.65294e-40
2.09233e-41
-1.21745e-41
-4.77909e-43
1.80898e-43
6.28745e-45
-3.29513e-45
-1.3181e-46
6.44513e-47
3.9473e-48
-1.10302e-48
-1.06917e-49
1.46984e-50
2.25955e-51
-1.38672e-52
-3.72837e-53
5.7733e-55
5.02708e-55
9.31928e-57
-5.5936e-57
-2.76846e-58
5.1017e-59
4.21435e-60
-3.74484e-61
-4.86177e-62
2.10962e-63
4.41502e-64
-6.85733e-66
-3.40457e-66
-1.73191e-68
2.21398e-68
4.7091e-70
-1.19704e-70
-4.21915e-72
5.56317e-73
2.59207e-74
-2.14449e-75
-1.20043e-76
6.60058e-78
4.44005e-79
-1.7067e-80
-1.23211e-81
3.34735e-83
2.44421e-84
-4.94155e-86
-3.33767e-87
4.592e-89
2.05297e-90
-8.97881e-93
1.07842e-05
-1.17318e-06
1.22615e-07
-1.69375e-08
-1.1721e-09
9.52726e-10
-5.19384e-10
-2.47639e-11
-5.75038e-11
-2.15018e-11
-7.96845e-12
-2.22756e-12
-3.45795e-13
3.20104e-14
4.28078e-14