/*--------------------------------*- C++ -*----------------------------------*\
  =========                 |
  \\      /  F ield         | OpenFOAM: The Open Source CFD Toolbox
   \\    /   O peration     | Website:  https://openfoam.org
    \\  /    A nd           | Version:  7
     \\/     M anipulation  |
\*---------------------------------------------------------------------------*/
FoamFile
{
    version     2.0;
    format      ascii;
    class       volScalarField;
    location    "1123200.0";
    object      Cw;
}
// * * * * * * * * * * * * * * * * * * * * * * * * * * * * * * * * * * * * * //

dimensions      [1 -3 0 0 0 0 0];

internalField   nonuniform List<scalar> 
5346
(
0.000230716
0.000143624
8.83579e-05
5.20378e-05
2.87294e-05
1.45816e-05
6.64527e-06
2.62789e-06
8.48048e-07
1.90424e-07
7.58497e-09
-1.77131e-08
-9.71745e-09
-2.74845e-09
-2.78798e-10
1.24821e-10
6.68754e-11
1.29619e-11
-5.91019e-13
-9.74109e-13
-2.14078e-13
2.18211e-15
1.11462e-14
2.10918e-15
-9.57957e-17
-1.01196e-16
-1.22027e-17
1.80428e-18
6.4661e-19
2.46507e-20
-1.60932e-20
-2.43176e-21
1.7421e-22
7.69019e-23
2.76451e-24
-1.49036e-24
-1.76746e-25
1.71896e-26
4.65319e-27
-1.12058e-29
-8.38897e-29
-4.80836e-30
1.11126e-30
1.3593e-31
-1.00821e-32
-2.49643e-33
2.86113e-35
3.5684e-35
1.10919e-36
-4.16732e-37
-2.97629e-38
3.98918e-39
4.8759e-40
-2.95714e-41
-6.31415e-42
1.317e-43
6.9768e-44
5.24494e-46
-6.7613e-46
-2.12398e-47
5.82054e-48
3.13825e-49
-4.4882e-50
-3.52268e-51
3.10353e-52
3.33955e-53
-1.92003e-54
-2.81507e-55
1.05203e-56
2.14384e-57
-4.93795e-59
-1.47585e-59
1.89028e-61
9.32424e-62
-4.78969e-64
-5.40107e-64
6.4303e-68
2.86886e-66
8.90663e-69
-1.40615e-68
-6.24327e-71
6.29391e-71
2.85609e-73
-2.49987e-73
-8.17942e-76
8.7674e-76
1.20411e-79
-2.6268e-78
9.42822e-81
6.61982e-81
-5.38437e-83
-1.36173e-83
1.76797e-85
2.03577e-86
-3.51475e-88
-1.90642e-89
3.91599e-91
7.67894e-93
-1.41427e-94
0.000230993
0.000144236
8.86503e-05
5.2102e-05
2.87431e-05
1.46192e-05
6.70444e-06
2.6853e-06
8.88823e-07
2.12632e-07
1.66623e-08
-1.52774e-08
-9.58176e-09
-2.99457e-09
-4.14399e-10
9.17456e-11
6.69709e-11
1.59321e-11
3.70186e-13
-9.08969e-13
-2.6169e-13
-1.36121e-14
1.03192e-14
2.7748e-15
7.08704e-17
-1.02357e-16
-1.94227e-17
7.76411e-19
7.70127e-19
7.57653e-20
-1.39962e-20
-3.74792e-21
-2.19171e-23
9.33701e-23
9.26023e-24
-1.33381e-24
-3.13101e-25
3.44869e-27
6.50014e-27
3.86676e-28
-9.34472e-29
-1.26252e-29
8.28773e-31
2.51283e-31
4.48786e-34
-3.76545e-33
-1.87957e-34
4.41499e-35
4.47695e-36
-3.92361e-37
-7.24038e-38
2.09025e-39
9.37452e-40
7.96634e-42
-1.02585e-41
-4.06053e-43
9.61026e-44
6.83826e-45
-7.72439e-46
-8.54083e-47
5.19111e-48
8.96703e-49
-2.66148e-50
-8.22707e-51
6.52356e-53
6.73739e-53
6.1315e-55
-4.98718e-55
-1.15979e-56
3.38759e-57
1.22246e-58
-2.11074e-59
-9.9378e-61
1.21341e-61
6.8844e-63
-6.49434e-64
-4.23012e-65
3.20164e-66
2.28043e-67
-1.46169e-68
-1.09747e-69
6.16493e-71
4.59986e-72
-2.42016e-73
-1.688e-74
8.6249e-76
5.40297e-77
-2.69483e-78
-1.38804e-79
7.21998e-81
2.78785e-82
-1.59225e-83
-4.17942e-85
2.70511e-86
3.69559e-88
-3.12106e-89
-1.22199e-91
1.63001e-92
-2.68551e-95
0.000230757
0.000143913
8.82576e-05
5.17094e-05
2.84419e-05
1.4447e-05
6.637e-06
2.67575e-06
8.99334e-07
2.23813e-07
2.30019e-08
-1.29253e-08
-9.11928e-09
-3.06134e-09
-5.03739e-10
5.94367e-11
6.2974e-11
1.74467e-11
1.20952e-12
-7.72141e-13
-2.8337e-13
-2.79707e-14
8.31453e-15
3.1478e-15
2.46249e-16
-8.87916e-17
-2.49657e-17
-6.31445e-19
7.84989e-19
1.28705e-19
-8.00989e-21
-4.75448e-21
-3.09941e-22
9.30931e-23
1.69791e-23
-6.43039e-25
-4.42203e-25
-2.26014e-26
7.38918e-27
9.94264e-28
-7.05818e-29
-2.27839e-29
-1.99945e-31
3.70706e-31
2.42542e-32
-4.45841e-33
-5.93171e-34
3.55837e-35
9.96229e-36
-3.94032e-38
-1.31944e-37
-4.79958e-39
1.4306e-39
1.09188e-40
-1.26634e-41
-1.63159e-42
8.55646e-44
1.97021e-44
-3.06785e-46
-2.02772e-46
-2.29647e-48
1.82323e-48
6.26279e-50
-1.44812e-50
-8.28159e-52
1.02319e-52
8.38056e-54
-6.4133e-55
-7.19536e-56
3.53682e-57
5.43963e-58
-1.68384e-59
-3.7087e-60
6.57054e-62
2.27235e-62
-1.87884e-64
-1.25676e-64
1.80599e-67
6.39864e-67
2.0671e-69
-2.91741e-69
-1.80961e-71
1.19296e-71
8.03796e-74
-4.40063e-74
-2.42914e-76
1.4204e-76
4.67746e-79
-3.85984e-79
-5.34967e-83
8.64673e-82
-3.16405e-84
-1.5064e-84
1.23637e-86
1.84645e-87
-2.29073e-89
-1.28613e-90
1.81905e-92
2.48318e-94
0.000230084
0.000142562
8.68686e-05
5.05909e-05
2.76754e-05
1.39968e-05
6.41527e-06
2.58884e-06
8.76109e-07
2.22911e-07
2.62479e-08
-1.08058e-08
-8.37925e-09
-2.94996e-09
-5.37621e-10
3.29828e-11
5.59558e-11
1.73364e-11
1.75868e-12
-6.00375e-13
-2.75716e-13
-3.73587e-14
5.70321e-15
3.13105e-15
3.80657e-16
-6.39377e-17
-2.70247e-17
-2.01555e-18
6.70351e-19
1.6582e-19
6.86588e-22
-4.98789e-21
-6.1098e-22
6.91908e-23
2.32098e-23
5.68141e-25
-4.97263e-25
-5.65412e-26
6.04558e-27
1.64304e-27
2.92351e-30
-3.10166e-29
-2.1427e-30
4.07174e-31
6.10111e-32
-3.07909e-33
-1.12647e-33
-1.27987e-35
1.57855e-35
9.35032e-37
-1.7199e-37
-1.97998e-38
1.36854e-39
2.98547e-40
-5.08244e-42
-3.63669e-42
-6.74592e-44
3.72627e-44
1.85748e-45
-3.24551e-46
-2.74051e-47
2.37795e-48
3.1392e-49
-1.38544e-50
-3.02228e-51
5.26057e-53
2.56288e-53
6.40151e-56
-1.94386e-55
-3.61746e-57
1.32109e-57
4.30679e-59
-8.09345e-60
-3.67238e-61
4.54477e-62
2.57678e-63
-2.32669e-64
-1.55415e-65
1.08029e-66
8.24801e-68
-4.63474e-69
-3.81287e-70
1.81122e-71
1.54303e-72
-6.46342e-74
-5.37921e-75
2.06987e-76
1.5834e-77
-5.9153e-79
-3.80708e-80
1.44137e-81
7.0954e-83
-2.85082e-84
-9.72249e-86
4.0298e-87
8.50343e-89
-3.47634e-90
-2.92444e-92
8.21045e-94
0.000228812
0.000140068
8.43642e-05
4.86229e-05
2.63541e-05
1.32227e-05
6.02145e-06
2.41936e-06
8.18156e-07
2.09871e-07
2.64022e-08
-8.96498e-09
-7.40488e-09
-2.6775e-09
-5.16897e-10
1.48438e-11
4.71197e-11
1.5769e-11
1.94678e-12
-4.31761e-13
-2.43257e-13
-3.99813e-14
3.21549e-15
2.76191e-15
4.38226e-16
-3.60922e-17
-2.51334e-17
-2.92247e-18
4.67552e-19
1.7409e-19
9.03257e-21
-4.31843e-21
-8.11027e-22
2.81684e-23
2.51764e-23
1.89855e-24
-4.35146e-25
-8.54285e-26
2.28037e-27
2.03955e-27
1.14924e-28
-3.18426e-29
-4.48491e-30
2.78075e-31
9.73973e-32
1.32834e-33
-1.52056e-33
-1.07314e-34
1.74337e-35
2.48689e-36
-1.25536e-37
-4.01995e-38
-1.4132e-40
5.1131e-40
2.27398e-41
-5.26418e-42
-4.62214e-43
4.29892e-44
6.54729e-45
-2.44244e-46
-7.46142e-47
2.43698e-49
7.26065e-49
1.68183e-50
-6.13614e-51
-2.90908e-52
4.51242e-53
3.30741e-54
-2.89461e-55
-3.03699e-56
1.59286e-57
2.4039e-58
-7.23185e-60
-1.66574e-60
2.43688e-62
1.03157e-62
-3.35977e-65
-5.66955e-65
-2.85386e-67
2.80105e-67
3.05568e-69
-1.23831e-69
-1.85953e-71
4.91017e-72
8.03324e-74
-1.73251e-74
-2.88295e-76
5.20938e-77
7.67522e-79
-1.32039e-79
-1.5874e-81
2.67909e-82
1.87184e-84
-4.24087e-85
-8.19449e-88
4.42477e-88
-1.13977e-90
-2.10683e-91
9.21665e-94
0.000226766
0.000136217
8.06193e-05
4.57392e-05
2.4445e-05
1.21119e-05
5.45433e-06
2.17006e-06
7.27979e-07
1.85995e-07
2.38685e-08
-7.37847e-09
-6.24942e-09
-2.27735e-09
-4.51024e-10
4.95369e-12
3.75306e-11
1.31458e-11
1.80597e-12
-2.91416e-13
-1.95371e-13
-3.63049e-14
1.37839e-15
2.17656e-15
4.13775e-16
-1.3478e-17
-2.03176e-17
-3.11303e-18
2.5389e-19
1.53184e-19
1.39772e-20
-3.06406e-21
-8.36706e-22
-1.26353e-23
2.21477e-23
2.77903e-24
-2.80463e-25
-9.60588e-26
-2.37769e-27
1.95692e-27
2.16694e-28
-2.33035e-29
-6.11716e-30
2.39225e-33
1.1345e-31
7.48173e-33
-1.47556e-33
-2.13726e-34
1.12382e-35
3.92326e-36
4.03837e-38
-5.45323e-38
-3.22205e-39
5.86514e-40
6.8197e-41
-4.50791e-42
-1.01849e-42
1.35803e-44
1.2149e-44
2.81714e-46
-1.2051e-46
-6.77926e-48
9.9897e-49
9.49302e-50
-6.75004e-51
-1.04104e-51
3.32322e-53
9.62022e-54
-5.69787e-56
-7.66171e-56
-1.06278e-57
5.37998e-58
1.67239e-59
-3.36817e-60
-1.57693e-61
1.87304e-62
1.17352e-63
-9.28641e-65
-7.33984e-66
4.0963e-67
3.8875e-68
-1.61617e-69
-1.77608e-70
5.75712e-72
7.08265e-73
-1.86043e-74
-2.3972e-75
5.51108e-77
6.86084e-78
-1.45461e-79
-1.55703e-80
3.3312e-82
2.8054e-83
-5.91603e-85
-3.51285e-86
7.35112e-88
2.46093e-89
-4.77754e-91
-5.62477e-93
0.000223672
0.000130626
7.54037e-05
4.18614e-05
2.19469e-05
1.06857e-05
4.73386e-06
1.85405e-06
6.12465e-07
1.54098e-07
1.94472e-08
-5.97107e-09
-4.98465e-09
-1.79925e-09
-3.56415e-10
1.32591e-12
2.80579e-11
9.99379e-12
1.44513e-12
-1.87468e-13
-1.42559e-13
-2.85259e-14
3.38997e-16
1.53632e-15
3.30904e-16
-1.27744e-19
-1.43651e-17
-2.6721e-18
9.33192e-20
1.14514e-19
1.44143e-20
-1.75146e-21
-7.02188e-22
-3.73702e-23
1.59308e-23
2.886e-24
-1.09285e-25
-8.51546e-26
-5.71302e-27
1.46856e-27
2.59501e-28
-9.85654e-30
-6.20963e-30
-2.81449e-31
9.95632e-32
1.22539e-32
-9.65764e-34
-2.74542e-34
-7.41705e-37
4.40611e-36
2.61191e-37
-5.24708e-38
-6.53126e-39
4.14935e-40
1.09161e-40
-4.90988e-43
-1.41618e-42
-5.34245e-44
1.47914e-44
1.18392e-45
-1.2202e-46
-1.71156e-47
7.0459e-49
1.95618e-49
-9.39707e-52
-1.8698e-51
-4.2693e-53
1.5334e-53
7.40041e-55
-1.08661e-55
-8.2642e-57
6.49325e-58
7.23853e-59
-3.22987e-60
-5.3978e-61
1.22494e-62
3.47275e-63
-2.55307e-65
-1.96704e-65
-8.26563e-68
9.80355e-68
1.25965e-69
-4.33872e-70
-8.26151e-72
1.67664e-72
3.92992e-74
-5.56134e-75
-1.44218e-76
1.58003e-77
3.98041e-79
-3.73459e-80
-8.2782e-82
7.01358e-83
1.18457e-84
-9.56978e-86
-9.60683e-88
7.74447e-89
1.88204e-91
-2.32207e-92
0.000218823
0.000122537
6.83936e-05
3.69446e-05
1.89114e-05
9.00405e-06
3.9027e-06
1.49524e-06
4.82692e-07
1.18294e-07
1.42151e-08
-4.65951e-09
-3.70473e-09
-1.30441e-09
-2.53047e-10
1.08799e-12
1.94096e-11
6.85561e-12
1.00335e-12
-1.15611e-13
-9.36959e-14
-1.94583e-14
-7.10867e-17
9.67594e-16
2.2633e-16
4.78074e-18
-8.88342e-18
-1.90429e-18
7.00015e-21
7.30438e-20
1.14808e-20
-7.72519e-22
-4.87955e-22
-4.16836e-23
9.35267e-24
2.33382e-24
9.44659e-27
-6.08228e-26
-6.53281e-27
8.44585e-28
2.32629e-28
1.63716e-30
-4.91921e-30
-4.3325e-31
6.57034e-32
1.33124e-32
-2.89639e-34
-2.61032e-34
-1.18819e-35
3.66904e-36
4.13089e-37
-3.42592e-38
-8.1947e-39
7.35913e-41
1.20642e-40
4.82658e-42
-1.38662e-42
-1.2414e-43
1.20045e-44
1.98821e-45
-6.20448e-47
-2.48319e-47
-2.15441e-49
2.54165e-49
1.05214e-50
-2.16854e-51
-1.64364e-52
1.51853e-53
1.85873e-54
-8.17299e-56
-1.71747e-56
2.51134e-58
1.35497e-58
9.04416e-61
-9.22273e-61
-2.247e-62
5.48041e-63
2.18279e-64
-2.85319e-65
-1.55531e-66
1.29901e-67
9.0696e-69
-5.14647e-70
-4.37499e-71
1.78372e-72
1.75589e-73
-5.39808e-75
-5.93511e-76
1.41796e-77
1.64089e-78
-3.18219e-80
-3.56661e-81
6.01001e-83
5.93458e-84
-8.68704e-86
-6.34872e-87
8.28923e-89
3.50918e-90
-2.66685e-92
0.000211545
0.000111508
5.94971e-05
3.1088e-05
1.54726e-05
7.17039e-06
3.02362e-06
1.12575e-06
3.52407e-07
8.32676e-08
9.26166e-09
-3.40156e-09
-2.51859e-09
-8.54225e-10
-1.595e-10
1.69757e-12
1.21704e-11
4.17772e-12
6.01075e-13
-6.73434e-14
-5.46109e-14
-1.14442e-14
-1.36761e-16
5.37364e-16
1.3202e-16
4.6776e-18
-4.76986e-18
-1.13458e-18
-2.11265e-20
3.9599e-20
7.35993e-21
-2.30758e-22
-2.81723e-22
-3.22265e-23
4.41724e-24
1.51518e-24
5.56669e-26
-3.51803e-26
-5.27219e-27
3.49118e-28
1.62741e-28
6.9997e-30
-3.05973e-30
-4.1244e-31
3.07936e-32
1.07587e-32
1.96432e-34
-1.8932e-34
-1.6463e-35
2.26329e-36
4.21087e-37
-1.19315e-38
-7.38558e-39
-2.25409e-40
9.81353e-41
8.24444e-42
-9.60511e-43
-1.55865e-43
5.48444e-45
2.19939e-45
2.443e-47
-2.48421e-47
-1.21898e-48
2.2885e-49
2.09467e-50
-1.64504e-51
-2.5908e-52
7.77054e-54
2.59348e-54
2.25141e-57
-2.18425e-56
-5.49106e-58
1.58104e-58
7.59245e-60
-9.80035e-61
-7.0648e-62
5.16312e-63
5.29953e-64
-2.24806e-65
-3.31003e-66
7.71789e-68
1.77582e-68
-1.75689e-70
-8.19236e-71
4.17179e-74
3.22782e-73
1.88628e-75
-1.05536e-75
-1.01356e-77
2.9147e-78
3.32833e-80
-6.37162e-81
-6.95489e-83
1.03774e-83
9.17717e-86
-1.15429e-86
-6.21312e-89
6.65372e-90
1.10727e-92
0.000200841
9.74368e-05
4.89593e-05
2.45885e-05
1.18557e-05
5.32324e-06
2.17101e-06
7.80307e-07
2.3518e-07
5.31382e-08
5.36983e-09
-2.23494e-09
-1.52941e-09
-4.95432e-10
-8.79266e-11
1.79264e-12
6.72732e-12
2.21361e-12
3.06595e-13
-3.56335e-14
-2.75667e-14
-5.71102e-15
-8.76516e-17
2.57376e-16
6.47567e-17
2.90503e-18
-2.1829e-18
-5.60589e-19
-1.98547e-20
1.79741e-20
3.82502e-21
-1.73614e-23
-1.33869e-22
-1.90245e-23
1.61014e-24
7.93342e-25
5.17948e-26
-1.6313e-26
-3.25224e-27
7.92396e-29
9.03062e-29
6.86137e-30
-1.4844e-30
-2.87142e-31
8.1526e-33
6.71359e-33
3.53857e-34
-1.05822e-34
-1.42394e-35
9.74978e-37
3.15684e-37
3.00388e-39
-5.05098e-39
-3.38488e-40
5.93303e-41
8.2165e-42
-4.40563e-43
-1.36522e-43
-4.40267e-46
1.76609e-45
8.18002e-47
-1.81342e-47
-1.67964e-48
1.42419e-49
2.35776e-50
-6.90181e-52
-2.63795e-52
-1.59346e-54
2.45182e-54
8.52316e-56
-1.92341e-56
-1.22256e-57
1.25535e-58
1.24149e-59
-6.59502e-61
-1.01939e-61
2.51519e-63
7.01533e-64
-3.79277e-66
-4.14656e-66
-3.78368e-68
2.11662e-68
4.37731e-70
-9.31676e-71
-2.83336e-72
3.49866e-73
1.31756e-74
-1.11784e-75
-4.6633e-77
2.96164e-78
1.28695e-79
-6.53802e-81
-2.66109e-82
1.10576e-83
3.78182e-85
-1.2324e-86
-3.05346e-88
6.93532e-90
6.95269e-92
0.000183444
7.9166e-05
3.72876e-05
1.80323e-05
8.38172e-06
3.62357e-06
1.42125e-06
4.90606e-07
1.41766e-07
3.05929e-08
2.86614e-09
-1.24791e-09
-8.02671e-10
-2.48058e-10
-4.16433e-11
1.25223e-12
3.15942e-12
9.89663e-13
1.30206e-13
-1.61524e-14
-1.16348e-14
-2.34982e-15
-3.71121e-17
1.02421e-16
2.59409e-17
1.33252e-18
-8.20998e-19
-2.23869e-19
-1.10502e-20
6.60058e-21
1.58624e-21
2.8876e-23
-5.08818e-23
-8.72642e-24
3.99253e-25
3.29642e-25
3.08078e-26
-5.84896e-27
-1.5578e-27
-1.47058e-29
3.93778e-29
4.35535e-30
-5.41235e-31
-1.52442e-31
-1.08843e-33
3.25476e-33
2.83932e-34
-4.47176e-35
-8.91557e-36
2.26484e-37
1.79854e-37
7.57985e-39
-2.62854e-39
-2.81789e-40
2.61458e-41
5.81386e-42
-8.66036e-44
-8.86128e-44
-3.08076e-45
1.05784e-45
8.75619e-47
-9.65398e-48
-1.46807e-48
5.60998e-50
1.87691e-50
5.7823e-53
-1.95703e-52
-7.00349e-54
1.697e-54
1.16157e-55
-1.20408e-56
-1.33434e-57
6.61672e-59
1.22518e-59
-2.2565e-61
-9.50047e-62
-3.46817e-64
6.29546e-64
1.33623e-65
-3.55843e-66
-1.29035e-67
1.71841e-68
8.68583e-70
-7.12173e-71
-4.53288e-72
2.54105e-73
1.95662e-74
-7.61386e-76
-6.88093e-77
1.87002e-78
1.89343e-79
-3.79885e-81
-3.91563e-82
6.15881e-84
5.80498e-85
-7.27579e-87
-4.8074e-88
4.50029e-90
1.26174e-91
0.000147327
5.87303e-05
2.57179e-05
1.18829e-05
5.28527e-06
2.18346e-06
8.16975e-07
2.6838e-07
7.35368e-08
1.49233e-08
1.22983e-09
-6.06239e-10
-3.56287e-10
-1.0371e-10
-1.64726e-11
5.48128e-13
1.18731e-12
3.54942e-13
4.42085e-14
-5.76103e-15
-3.8608e-15
-7.53635e-16
-1.14264e-17
3.15711e-17
7.97585e-18
4.5603e-19
-2.34581e-19
-6.79445e-20
-4.34533e-21
1.80517e-21
4.98294e-22
2.10733e-23
-1.43718e-23
-3.02637e-24
2.80694e-26
1.03093e-25
1.3145e-26
-1.45494e-27
-5.66107e-28
-2.43976e-29
1.28723e-29
1.99606e-30
-1.29267e-31
-6.1462e-32
-2.50357e-33
1.19083e-33
1.53759e-34
-1.32473e-35
-4.17595e-36
-3.92333e-38
7.75927e-38
5.86978e-39
-1.01649e-39
-1.63439e-40
7.4276e-42
3.04879e-42
4.86958e-44
-4.3407e-44
-2.8656e-45
4.73087e-46
6.02982e-47
-3.54294e-48
-9.10125e-49
6.49284e-51
1.09549e-50
3.28862e-52
-1.07913e-52
-7.07624e-54
8.60769e-55
9.48796e-56
-5.26082e-57
-9.94676e-58
1.90793e-59
8.64784e-60
5.28943e-62
-6.35464e-62
-1.72298e-63
4.00542e-64
1.84197e-65
-2.16571e-66
-1.41502e-67
9.88313e-69
8.56978e-70
-3.78342e-71
-4.33346e-72
1.17999e-73
1.78993e-74
-2.92443e-76
-6.12753e-77
5.39242e-79
1.6749e-79
-7.02581e-82
-3.46517e-82
6.6366e-85
5.04277e-85
-1.04059e-87
-4.43693e-88
9.71608e-91
1.38461e-91
9.51173e-05
3.64331e-05
1.4945e-05
6.69014e-06
2.83685e-06
1.11309e-06
3.93949e-07
1.21662e-07
3.10092e-08
5.68913e-09
3.14945e-10
-2.68306e-10
-1.32647e-10
-3.48524e-11
-4.96756e-12
2.40614e-13
3.47947e-13
9.47837e-14
1.06443e-14
-1.49679e-15
-8.83365e-16
-1.61882e-16
-2.54969e-18
6.21728e-18
1.56657e-18
1.05915e-19
-3.95078e-20
-1.29127e-20
-1.17572e-21
2.70646e-22
1.00111e-22
8.46133e-24
-2.30099e-24
-7.08314e-25
-3.04111e-26
2.03087e-26
3.9347e-27
-1.36318e-28
-1.41684e-28
-1.28747e-29
2.69211e-30
6.52418e-31
-6.30599e-33
-1.76371e-32
-1.47158e-33
2.967e-34
5.92318e-35
-1.89982e-36
-1.42466e-36
-6.53366e-38
2.41342e-38
2.89041e-39
-2.64827e-40
-6.85792e-41
5.60717e-43
1.18144e-42
5.53232e-44
-1.5587e-44
-1.61792e-45
1.48835e-46
2.94692e-47
-7.04855e-49
-4.14488e-49
-8.02075e-51
4.71111e-51
2.69752e-52
-4.34637e-53
-4.40076e-54
3.0859e-55
5.35556e-56
-1.37765e-57
-5.28641e-58
-1.94371e-60
4.42658e-60
1.20474e-61
-3.12271e-62
-1.54456e-63
1.87947e-64
1.37912e-65
-9.48557e-67
-9.7355e-68
3.91362e-69
5.68351e-70
-1.25303e-71
-2.76741e-72
2.65508e-74
1.12485e-74
-1.12094e-77
-3.79408e-77
-1.82106e-79
1.03036e-79
8.16095e-82
-2.20026e-82
-1.86067e-84
3.27852e-85
2.36857e-87
-2.92572e-88
-9.19204e-91
8.70667e-92
5.30182e-05
1.64944e-05
6.79565e-06
3.01973e-06
1.20934e-06
4.48771e-07
1.48478e-07
4.22286e-08
9.6297e-09
1.44185e-09
-2.45387e-11
-1.02507e-10
-3.82231e-11
-8.21985e-12
-8.76535e-13
1.01384e-13
6.68244e-14
1.36142e-14
9.46387e-16
-2.13986e-16
-6.67509e-17
-7.02393e-18
-1.25799e-19
9.80672e-21
3.08607e-22
8.30257e-21
3.26878e-21
2.11107e-22
-1.57685e-22
-4.09783e-23
9.93935e-25
2.1002e-24
2.61655e-25
-5.41128e-26
-1.77838e-26
-7.8473e-29
6.61069e-28
7.79646e-29
-1.44328e-29
-4.10511e-30
4.86688e-32
1.30265e-31
1.06486e-32
-2.71132e-33
-5.19902e-34
2.74342e-35
1.5117e-35
4.95512e-37
-3.09869e-37
-3.29188e-38
4.37885e-39
9.59896e-40
-2.59398e-41
-1.97898e-41
-6.69433e-43
3.10922e-43
2.79128e-44
-3.63537e-45
-6.1886e-46
2.56481e-47
1.01674e-47
8.7047e-50
-1.3384e-49
-6.54509e-51
1.42358e-51
1.32134e-52
-1.18361e-53
-1.87161e-54
6.6534e-56
2.12986e-56
-3.17351e-59
-2.01732e-58
-5.10208e-60
1.6204e-60
8.0565e-62
-1.09768e-62
-8.32456e-64
6.18231e-65
6.83013e-66
-2.80273e-67
-4.61964e-68
9.29135e-70
2.61017e-70
-1.55005e-72
-1.26039e-72
-5.5429e-75
5.08912e-75
5.94084e-77
-1.67266e-77
-2.75627e-79
4.5741e-80
8.43741e-82
-9.84447e-83
-1.77783e-84
1.48559e-85
2.21547e-87
-1.41624e-88
-1.23029e-90
4.38939e-92
2.16658e-05
3.80392e-06
2.32853e-06
9.58485e-07
3.6108e-07
1.25818e-07
3.7585e-08
9.23302e-09
1.61242e-09
8.30248e-11
-6.58954e-11
-2.87617e-11
-6.20888e-12
-5.55849e-13
8.42557e-14
2.89136e-14
-1.94281e-15
-2.82535e-15
-5.74544e-16
5.55272e-17
5.64163e-17
1.22446e-17
4.43555e-20
-6.18633e-19
-1.49234e-19
-5.11116e-21
5.44539e-21
1.30709e-21
2.99523e-23
-4.49793e-23
-8.72171e-24
2.21029e-25
3.32691e-25
3.92219e-26
-5.45538e-27
-1.86907e-27
-5.22709e-29
4.76363e-29
6.16864e-30
-7.09271e-31
-2.22396e-31
3.50991e-34
5.52027e-33
3.72084e-34
-1.06548e-34
-1.50155e-35
1.5657e-36
4.20854e-37
-1.18346e-38
-9.64499e-39
-2.33158e-40
1.86874e-40
1.37626e-41
-2.96664e-42
-3.97719e-43
3.58493e-44
8.58523e-45
-2.27334e-46
-1.5014e-46
-2.71838e-48
2.16928e-48
1.25647e-49
-2.56031e-50
-2.65769e-51
2.36382e-52
4.14516e-53
-1.4556e-54
-5.2627e-55
2.08343e-58
5.60077e-57
1.54429e-58
-5.02731e-59
-2.71502e-60
3.81274e-61
3.20532e-62
-2.41296e-63
-2.94664e-64
1.19611e-65
2.2712e-66
-4.04635e-68
-1.48313e-68
2.61884e-71
8.15469e-71
8.54848e-73
-3.87504e-73
-7.57286e-75
1.54698e-75
3.96643e-77
-5.05714e-78
-1.53645e-79
1.37253e-80
4.29324e-82
-2.91918e-83
-8.53429e-85
4.53099e-86
1.09906e-87
-4.34645e-89
-6.2145e-91
1.38684e-92
4.05932e-06
-2.53348e-07
5.7539e-07
1.20232e-07
5.36752e-08
1.45749e-08
2.84333e-09
6.55434e-11
-2.34812e-10
-1.1319e-10
-2.92754e-11
-2.92923e-12
1.0644e-12
5.81962e-13
1.20257e-13
-6.61543e-16
-8.51478e-15
-2.72843e-15
-3.23354e-16
6.1091e-17
3.47549e-17
6.22568e-18
-8.63836e-20
-3.07973e-19
-6.8836e-20
-2.35978e-21
2.34102e-21
5.79345e-22
2.35239e-23
-1.75105e-23
-4.03019e-24
-6.40429e-26
1.29719e-25
2.22165e-26
-9.8047e-28
-8.37204e-28
-7.98972e-29
1.47381e-29
4.01136e-30
3.71455e-32
-1.03587e-31
-1.11423e-32
1.53155e-33
4.00786e-34
-2.04516e-36
-9.02939e-36
-6.21588e-37
1.42652e-37
2.16624e-38
-1.3873e-39
-4.82263e-40
-1.09042e-42
8.28788e-42
4.12204e-43
-1.16433e-43
-1.12734e-44
1.35569e-45
2.17728e-46
-1.2334e-47
-3.48803e-48
7.06185e-50
4.87826e-50
4.07254e-52
-6.1675e-52
-2.07671e-53
6.97314e-54
4.09017e-55
-7.10313e-56
-6.03197e-57
6.30204e-58
7.48944e-59
-4.69942e-60
-7.93526e-61
2.70738e-62
7.50415e-63
-1.00078e-64
-6.04127e-65
-2.21514e-67
4.28321e-67
7.70644e-69
-2.65493e-69
-7.84653e-71
1.39909e-71
5.60908e-73
-6.39306e-74
-3.12158e-75
2.50164e-76
1.35949e-77
-8.0839e-79
-4.70626e-80
2.16312e-81
1.28148e-82
-4.52324e-84
-2.40345e-85
7.40248e-87
3.12762e-88
-7.34068e-90
-1.81712e-91
2.4645e-93
-4.84869e-07
-1.79364e-07
2.18687e-08
-4.32537e-08
-6.81224e-09
-5.78679e-09
-2.17237e-09
-8.22459e-10
-2.41718e-10
-5.12275e-11
-4.22128e-12
2.11779e-12
1.1808e-12
3.12127e-13
3.80564e-14
-5.74508e-15
-4.11133e-15
-9.65559e-16
-7.01728e-17
2.83356e-17
1.10304e-17
1.57753e-18
-8.86031e-20
-8.84566e-20
-1.70826e-20
-3.13149e-22
6.04553e-22
1.4117e-22
6.15989e-24
-4.07477e-24
-1.01266e-24
-3.81797e-26
2.95135e-26
6.28451e-27
-8.62175e-30
-2.10188e-28
-2.96795e-29
2.5668e-30
1.22765e-30
7.20698e-32
-2.67686e-32
-4.83124e-33
2.14768e-34
1.43212e-34
7.83599e-36
-2.68504e-36
-3.99647e-37
2.71545e-38
1.04302e-38
2.01152e-40
-1.90905e-40
-1.61975e-41
2.45992e-42
4.30182e-43
-1.7201e-44
-7.95881e-45
-1.35668e-46
1.14352e-46
7.38299e-48
-1.2914e-48
-1.53883e-49
1.05816e-50
2.36222e-51
-4.24846e-53
-2.92596e-53
-4.94232e-55
3.0285e-55
1.39911e-56
-2.64715e-57
-2.04442e-58
1.9445e-59
2.25107e-60
-1.13403e-61
-2.08226e-62
5.27339e-64
1.62669e-64
-1.08492e-66
-1.11835e-66
-7.98043e-69
6.81575e-69
1.14567e-70
-3.64435e-71
-8.90445e-73
1.70993e-73
5.3801e-75
-7.09216e-76
-2.3811e-77
2.52443e-78
8.07581e-80
-7.34458e-81
-2.3667e-82
1.90534e-83
5.28581e-85
-3.17931e-86
-6.47422e-88
4.26035e-89
5.09641e-91
-2.6325e-92
-1.92937e-94
-2.07423e-07
-3.31891e-08
-2.47791e-08
-1.79815e-08
-5.73795e-09
-3.22839e-09
-9.57324e-10
-3.06545e-10
-6.47864e-11
-7.24992e-12
1.87056e-12
1.33318e-12
4.12304e-13
7.26129e-14
2.17521e-15
-3.10708e-15
-1.06982e-15
-1.59308e-16
4.62989e-18
7.85942e-18
1.72511e-18
1.05767e-19
-3.78326e-20
-1.19913e-20
-1.3139e-21
1.04908e-22
6.38321e-23
1.10185e-23
4.71368e-25
-2.93094e-25
-9.36984e-26
-9.97244e-27
1.92112e-27
8.23871e-28
7.13903e-29
-2.0888e-29
-5.92298e-30
-8.72335e-32
1.93028e-31
2.66531e-32
-3.00577e-33
-1.12864e-33
-2.97118e-35
2.82245e-35
3.40732e-36
-4.15682e-37
-1.18083e-37
2.38317e-40
2.6737e-39
1.92555e-40
-4.24678e-41
-6.73379e-42
3.86755e-43
1.49638e-43
1.91278e-45
-2.49171e-45
-1.65826e-46
3.14936e-47
4.14567e-48
-2.74245e-49
-7.18281e-50
6.21712e-52
9.85685e-52
3.16986e-53
-1.09735e-53
-7.8304e-55
9.79941e-56
1.18913e-56
-6.5598e-58
-1.40907e-58
2.30064e-60
1.37195e-60
1.60001e-62
-1.13605e-62
-3.9479e-64
7.96952e-65
4.57572e-66
-4.72132e-67
-3.93974e-68
2.34182e-69
2.73836e-70
-9.42088e-72
-1.57223e-72
2.7534e-74
7.78114e-75
-4.77922e-77
-3.17028e-77
-4.69815e-80
1.04352e-79
7.83048e-82
-2.88572e-82
-2.54211e-84
6.19714e-85
6.66473e-87
-9.1966e-88
-8.15725e-90
8.56824e-91
4.03496e-93
-3.1841e-94
2.13148e-06
-8.35318e-07
1.86211e-07
-3.43578e-08
3.66503e-09
-1.17873e-09
-6.96361e-11
-4.72847e-11
-1.0503e-12
1.94971e-12
1.18191e-12
3.41524e-13
5.65716e-14
2.23952e-16
-2.73171e-15
-7.75698e-16
-7.23649e-17
1.99915e-17
7.7677e-18
6.67704e-19
-2.47579e-19
-8.56985e-20
-6.01313e-21
2.74934e-21
8.4921e-22
4.92378e-23
-2.6467e-23
-6.84909e-24
-1.62082e-25
2.30643e-25
4.1927e-26
-1.92396e-27
-1.67595e-27
-1.51983e-28
3.44899e-29
8.41068e-30
-1.58197e-31
-2.5556e-31
-1.77759e-32
5.63083e-33
9.14122e-34
-8.71287e-35
-3.02278e-35
3.17897e-37
8.02617e-37
4.1448e-38
-1.73679e-38
-2.05753e-39
2.83635e-40
6.37942e-41
-2.57477e-42
-1.50896e-42
-3.17478e-44
2.81581e-44
2.10133e-45
-4.1049e-46
-5.74314e-47
4.18548e-48
1.13629e-48
-1.4638e-50
-1.78019e-50
-5.41806e-52
2.26726e-52
1.6226e-53
-2.31548e-54
-2.85744e-55
1.77108e-56
3.87079e-57
-7.27224e-59
-4.31426e-59
-5.09897e-61
4.0257e-61
1.52835e-62
-3.18229e-63
-2.05719e-64
2.11545e-65
2.01274e-66
-1.14296e-67
-1.61143e-68
4.72918e-70
1.07714e-70
-1.19211e-72
-6.03459e-73
-1.45177e-75
2.91864e-75
3.55775e-77
-1.17804e-77
-2.20718e-79
3.87347e-80
9.27914e-82
-1.06321e-82
-2.66673e-84
2.26393e-85
5.43972e-87
-3.47073e-88
-7.04833e-90
3.31556e-91
3.97959e-93
-1.2271e-94
1.16973e-05
-2.13485e-06
3.4361e-07
-5.53746e-08
8.68122e-09
-1.22734e-09
1.85966e-10
-1.25139e-11
6.2291e-12
8.77955e-13
2.54269e-13
5.24948e-15
-1.35449e-14
-5.57519e-15
-1.01573e-15
1.11335e-17
6.61671e-17
1.97003e-17
1.9323e-18
-5.27954e-19
-2.42561e-19
-3.65668e-20
2.35558e-21
2.20682e-21
4.08969e-22
-2.4163e-24
-1.72304e-23
-3.42561e-24
-8.768e-27
1.26463e-25
2.29761e-26
-5.56311e-28
-8.77396e-28
-1.16361e-28
1.12603e-29
5.16769e-30
3.35543e-31
-1.08329e-31
-2.205e-32
5.25222e-34
6.35704e-34
4.82281e-35
-1.1095e-35
-2.08222e-36
8.35693e-38
5.14741e-38
1.87501e-39
-9.17793e-40
-9.2867e-41
1.20244e-41
2.3326e-42
-1.01714e-43
-4.48632e-44
-1.19165e-46
7.34558e-46
2.73275e-47
-1.07877e-47
-7.63407e-49
1.42673e-49
1.56105e-50
-1.68735e-51
-2.70275e-52
1.59756e-53
4.1468e-54
-9.57598e-56
-5.55942e-56
-3.08242e-58
6.56917e-58
1.9948e-59
-6.71805e-60
-3.739e-61
5.89467e-62
4.90109e-63
-4.32647e-64
-5.29158e-65
2.6131e-66
4.66341e-67
-1.11993e-68
-3.55151e-69
1.91033e-71
2.31425e-71
2.03831e-73
-1.27644e-73
-2.56953e-75
6.06729e-76
1.77825e-77
-2.44536e-78
-8.5721e-80
8.06272e-81
3.1887e-82
-2.195e-83
-9.06473e-85
4.65037e-86
1.7424e-87
-7.40055e-89
-2.34064e-90
7.21792e-92
1.3656e-93
-2.40554e-95
3.38793e-05
-2.21153e-06
2.42905e-07
-3.18941e-08
4.88204e-09
-7.61487e-10
1.37989e-10
-1.4601e-11
3.62792e-12
-1.69277e-13
8.94645e-15
-2.87004e-14
-8.33772e-15
-1.6917e-15
-5.18645e-17
8.11985e-17
3.01556e-17
4.8598e-18
-1.62669e-19
-2.86324e-19
-6.93847e-20
-4.86715e-21
1.8212e-21
6.45363e-22
7.66868e-23
-8.56482e-24
-4.89198e-24
-7.17426e-25
3.54962e-26
3.37948e-26
5.2657e-27
-2.34385e-28
-2.27946e-28
-3.0813e-29
2.70087e-30
1.43139e-30
1.22762e-31
-2.742e-32
-7.29926e-33
-9.88565e-35
1.95325e-34
2.40605e-35
-2.61394e-36
-8.63626e-37
-1.71349e-38
1.86265e-38
1.9541e-39
-2.46484e-40
-5.94198e-41
6.05717e-43
1.19454e-42
6.70496e-44
-1.72066e-44
-2.18837e-45
1.62112e-46
4.39517e-47
-2.66075e-49
-6.70078e-49
-2.73806e-50
8.11663e-51
6.91504e-52
-7.59342e-53
-1.14546e-53
5.05399e-55
1.48413e-55
-9.50227e-58
-1.6029e-57
-3.21532e-59
1.47987e-59
6.46502e-61
-1.20526e-61
-7.83987e-63
8.52487e-64
7.73449e-65
-5.74933e-66
-6.26435e-67
3.33303e-68
4.63061e-69
-1.85627e-70
-3.07169e-71
9.8064e-73
1.82653e-73
-4.56946e-75
-9.61492e-76
1.78079e-77
4.56204e-78
-6.94643e-80
-1.7883e-80
2.34401e-82
5.78886e-83
-5.99715e-85
-1.64157e-85
1.22073e-87
2.91149e-88
-2.91811e-90
-4.1034e-91
3.44538e-93
2.55743e-94
9.7272e-97
3.72971e-05
-1.18482e-06
9.70374e-08
-1.07037e-08
1.45852e-09
-2.38073e-10
4.67333e-11
-7.74163e-12
1.41062e-12
-2.49757e-13
2.7184e-15
-1.15554e-14
-1.23516e-15
-1.00735e-16
7.53405e-17
2.78557e-17
5.0464e-18
1.37958e-20
-2.39355e-19
-6.28121e-20
-5.27729e-21
1.34398e-21
5.1314e-22
6.36401e-23
-4.94824e-24
-3.26905e-24
-4.99591e-25
3.34561e-27
1.60056e-26
3.20628e-27
1.95269e-28
-6.12273e-29
-2.1481e-29
-2.64557e-30
2.89259e-31
1.66611e-31
1.92771e-32
-3.08244e-33
-1.16913e-33
-5.69769e-35
3.08852e-35
5.45143e-36
-2.97214e-37
-1.8506e-37
-1.05002e-38
3.77898e-39
5.9837e-40
-3.84291e-41
-1.66913e-41
-4.64646e-43
3.17883e-43
3.18009e-44
-4.02226e-45
-8.5558e-46
1.95517e-47
1.60473e-47
5.69167e-49
-2.27513e-49
-2.06126e-50
2.39192e-51
4.0583e-52
-1.43424e-53
-6.03765e-54
-6.60525e-56
7.17495e-56
3.51821e-57
-6.90853e-58
-6.21843e-59
5.20044e-60
7.93327e-61
-2.68015e-62
-8.07368e-63
1.67146e-65
6.92879e-65
1.48293e-66
-4.98674e-67
-2.16549e-68
3.06845e-69
2.0134e-70
-1.59667e-71
-1.4493e-72
6.89234e-74
8.48895e-75
-2.35033e-76
-4.27855e-77
6.33327e-79
1.75375e-79
-1.04045e-81
-5.8049e-82
-4.11189e-85
1.61798e-84
2.51163e-87
-3.4617e-87
-1.64049e-89
5.10631e-90
1.63307e-92
-4.71161e-93
-3.41419e-96
2.73925e-96
1.96088e-05
-5.22667e-07
3.45725e-08
-3.37628e-09
4.05731e-10
-5.5179e-11
9.09202e-12
-2.0055e-12
3.50009e-13
-9.65242e-14
7.86417e-15
-2.49504e-15
3.7782e-16
6.86983e-17
2.78058e-17
2.36656e-18
-6.25241e-19
-3.50687e-19
-6.11238e-20
1.74418e-21
3.47212e-21
7.65294e-22
2.1325e-23
-2.81837e-23
-7.09029e-24
-3.34654e-25
2.1126e-25
5.23386e-26
1.7512e-27
-1.51955e-27
-3.01472e-28
3.60625e-30
9.72436e-30
1.14962e-30
-1.33758e-31
-4.47087e-32
-9.3136e-34
9.86913e-34
8.9305e-35
-1.7413e-35
-2.75729e-36
3.50032e-37
8.18758e-38
-7.92207e-39
-2.77187e-39
1.04875e-40
8.66709e-41
2.48365e-42
-2.13645e-42
-2.03825e-43
3.84241e-44
7.12216e-45
-3.89173e-46
-1.72187e-46
-2.38085e-48
3.15252e-48
2.13496e-49
-4.34727e-50
-5.79451e-51
4.15919e-52
1.08346e-52
-1.18583e-54
-1.58635e-54
-5.05155e-56
1.86501e-56
1.35256e-57
-1.74723e-58
-2.18166e-59
1.20795e-60
2.71074e-61
-4.026e-63
-2.74412e-63
-3.93549e-65
2.34267e-65
9.17627e-67
-1.67871e-67
-1.07484e-68
1.0033e-69
9.47515e-71
-4.89489e-72
-6.72662e-73
1.82643e-74
3.93202e-75
-4.18574e-77
-1.97228e-77
-2.13696e-80
8.16577e-80
7.31717e-82
-2.73643e-82
-4.23005e-84
7.64967e-85
1.29324e-86
-1.63568e-87
-2.91589e-89
2.52288e-90
3.90308e-92
-2.39002e-93
-2.21105e-95
1.13124e-96
-1.7961e-06
1.17375e-07
-1.03667e-08
1.05653e-09
-1.02042e-10
9.40554e-12
-1.03866e-12
3.43339e-15
1.15316e-14
-1.31118e-14
3.30923e-15
-2.41121e-16
2.34188e-16
1.45044e-17
3.00145e-18
-1.51718e-18
-5.3496e-19
-9.97328e-20
1.95851e-21
5.69402e-21
1.48229e-21
1.14265e-22
-3.97037e-23
-1.47004e-23
-1.77563e-24
2.1496e-25
1.18685e-25
1.62964e-26
-1.25694e-27
-8.45145e-28
-1.09767e-28
1.04359e-29
5.45343e-30
5.18044e-31
-9.55954e-32
-2.94427e-32
-1.12622e-33
6.95625e-34
1.14794e-34
-5.51193e-36
-3.55227e-36
-2.17876e-37
6.36137e-38
1.05093e-38
-5.18165e-40
-2.56461e-40
-7.89699e-42
4.34687e-42
4.00025e-43
-5.40418e-44
-9.1365e-45
5.1208e-46
1.58933e-46
-4.10366e-48
-2.51982e-48
3.70908e-50
4.15461e-50
-1.18022e-52
-7.21626e-52
-1.16529e-53
1.20785e-53
5.1029e-55
-1.74648e-55
-1.33476e-56
2.08952e-57
2.51753e-58
-1.9561e-59
-3.8135e-60
1.2225e-61
4.73398e-62
1.8969e-65
-4.91099e-64
-1.31176e-65
4.29603e-66
2.26296e-67
-3.18257e-68
-2.49573e-69
1.92178e-70
2.20576e-71
-9.19608e-73
-1.59535e-73
3.09699e-75
9.50802e-76
-3.57262e-78
-4.84211e-78
-3.70566e-80
2.04946e-80
3.12668e-82
-7.00711e-83
-1.5126e-84
1.98393e-85
4.88946e-87
-4.27749e-88