/*--------------------------------*- C++ -*----------------------------------*\
  =========                 |
  \\      /  F ield         | OpenFOAM: The Open Source CFD Toolbox
   \\    /   O peration     | Website:  https://openfoam.org
    \\  /    A nd           | Version:  7
     \\/     M anipulation  |
\*---------------------------------------------------------------------------*/
FoamFile
{
    version     2.0;
    format      ascii;
    class       volScalarField;
    location    "1123200.0";
    object      h;
}
// * * * * * * * * * * * * * * * * * * * * * * * * * * * * * * * * * * * * * //

dimensions      [0 1 0 0 0 0 0];

internalField   nonuniform List<scalar> 
5346
(
0.0129338
0.00864746
0.00615683
0.00453833
0.00340645
0.00257074
0.00192633
0.00141159
0.000988854
0.000634414
0.000332899
7.39593e-05
-0.000149759
-0.000343819
-0.000512644
-0.000659873
-0.000788554
-0.000901264
-0.00100019
-0.00108717
-0.00116382
-0.00123146
-0.00129126
-0.00134422
-0.0013912
-0.00143292
-0.00147004
-0.00150311
-0.00153261
-0.00155895
-0.00158252
-0.00160361
-0.00162253
-0.00163951
-0.00165476
-0.00166848
-0.00168084
-0.00169198
-0.00170203
-0.00171111
-0.00171932
-0.00172675
-0.00173348
-0.00173958
-0.00174512
-0.00175015
-0.00175472
-0.00175888
-0.00176267
-0.00176613
-0.00176928
-0.00177216
-0.00177478
-0.00177719
-0.00177939
-0.0017814
-0.00178324
-0.00178494
-0.00178649
-0.00178791
-0.00178922
-0.00179042
-0.00179153
-0.00179255
-0.00179348
-0.00179435
-0.00179514
-0.00179587
-0.00179655
-0.00179717
-0.00179774
-0.00179827
-0.00179876
-0.00179921
-0.00179962
-0.0018
-0.00180035
-0.00180068
-0.00180097
-0.00180125
-0.0018015
-0.00180173
-0.00180193
-0.00180213
-0.0018023
-0.00180246
-0.0018026
-0.00180273
-0.00180284
-0.00180294
-0.00180303
-0.00180311
-0.00180317
-0.00180323
-0.00180327
-0.00180331
-0.00180334
-0.00180335
-0.00180336
0.0126355
0.0083442
0.0058853
0.00430428
0.0032057
0.0023975
0.00177559
0.00127954
0.000872629
0.00053181
0.000242147
-6.42649e-06
-0.000221066
-0.000407169
-0.000569011
-0.000710106
-0.000833393
-0.00094135
-0.00103608
-0.00111936
-0.00119271
-0.00125745
-0.00131466
-0.00136532
-0.00141024
-0.00145013
-0.00148562
-0.00151722
-0.0015454
-0.00157057
-0.00159308
-0.00161322
-0.00163128
-0.00164748
-0.00166204
-0.00167513
-0.00168692
-0.00169754
-0.00170713
-0.00171578
-0.00172361
-0.00173069
-0.0017371
-0.00174291
-0.00174819
-0.00175298
-0.00175733
-0.0017613
-0.0017649
-0.00176819
-0.00177119
-0.00177392
-0.00177642
-0.00177871
-0.0017808
-0.00178271
-0.00178447
-0.00178607
-0.00178755
-0.0017889
-0.00179014
-0.00179129
-0.00179234
-0.0017933
-0.00179419
-0.00179501
-0.00179576
-0.00179646
-0.0017971
-0.00179769
-0.00179823
-0.00179873
-0.00179919
-0.00179962
-0.00180001
-0.00180037
-0.00180071
-0.00180101
-0.00180129
-0.00180155
-0.00180179
-0.00180201
-0.00180221
-0.00180239
-0.00180255
-0.0018027
-0.00180283
-0.00180296
-0.00180306
-0.00180316
-0.00180324
-0.00180332
-0.00180338
-0.00180343
-0.00180347
-0.00180351
-0.00180353
-0.00180355
-0.00180356
0.0120938
0.00786874
0.00547615
0.00395596
0.00290936
0.00214413
0.00155747
0.00109053
0.000707958
0.000387765
0.000115766
-0.000117575
-0.000319027
-0.000493681
-0.000645567
-0.000777986
-0.000893697
-0.000995023
-0.00108394
-0.00116211
-0.00123097
-0.00129173
-0.00134543
-0.00139298
-0.00143514
-0.00147258
-0.00150588
-0.00153553
-0.00156198
-0.00158559
-0.0016067
-0.0016256
-0.00164253
-0.00165773
-0.00167137
-0.00168365
-0.00169469
-0.00170465
-0.00171363
-0.00172174
-0.00172906
-0.00173569
-0.0017417
-0.00174714
-0.00175208
-0.00175656
-0.00176063
-0.00176434
-0.00176771
-0.00177079
-0.00177359
-0.00177615
-0.00177848
-0.00178062
-0.00178257
-0.00178436
-0.001786
-0.0017875
-0.00178887
-0.00179014
-0.0017913
-0.00179236
-0.00179334
-0.00179424
-0.00179507
-0.00179583
-0.00179654
-0.00179718
-0.00179778
-0.00179833
-0.00179884
-0.0017993
-0.00179973
-0.00180013
-0.0018005
-0.00180083
-0.00180114
-0.00180143
-0.00180169
-0.00180193
-0.00180215
-0.00180235
-0.00180254
-0.00180271
-0.00180286
-0.001803
-0.00180312
-0.00180324
-0.00180334
-0.00180342
-0.0018035
-0.00180357
-0.00180363
-0.00180368
-0.00180372
-0.00180375
-0.00180377
-0.00180379
-0.00180379
0.0112448
0.00718508
0.0049126
0.00348567
0.00251337
0.00180797
0.00126991
0.000842879
0.000493478
0.000201186
-4.71165e-05
-0.000260177
-0.000444188
-0.000603791
-0.000742654
-0.000863782
-0.000969676
-0.00106245
-0.00114389
-0.00121552
-0.00127864
-0.00133435
-0.00138361
-0.00142723
-0.00146592
-0.00150028
-0.00153084
-0.00155805
-0.00158233
-0.001604
-0.00162338
-0.00164073
-0.00165627
-0.00167021
-0.00168274
-0.001694
-0.00170414
-0.00171327
-0.00172151
-0.00172894
-0.00173567
-0.00174174
-0.00174725
-0.00175224
-0.00175676
-0.00176087
-0.0017646
-0.001768
-0.00177109
-0.0017739
-0.00177647
-0.00177881
-0.00178095
-0.0017829
-0.00178469
-0.00178632
-0.00178782
-0.00178919
-0.00179045
-0.00179161
-0.00179267
-0.00179364
-0.00179453
-0.00179536
-0.00179611
-0.00179681
-0.00179745
-0.00179804
-0.00179859
-0.00179909
-0.00179955
-0.00179998
-0.00180037
-0.00180073
-0.00180107
-0.00180137
-0.00180166
-0.00180192
-0.00180215
-0.00180237
-0.00180257
-0.00180276
-0.00180293
-0.00180308
-0.00180322
-0.00180335
-0.00180346
-0.00180356
-0.00180365
-0.00180374
-0.00180381
-0.00180387
-0.00180392
-0.00180397
-0.001804
-0.00180403
-0.00180405
-0.00180406
-0.00180407
0.01006
0.00627231
0.00418245
0.00288723
0.00201473
0.00138749
0.000912043
0.000536025
0.000228805
-2.81936e-05
-0.000246657
-0.000434312
-0.000596567
-0.000737479
-0.000860229
-0.000967429
-0.00106126
-0.00114355
-0.00121586
-0.00127952
-0.00133566
-0.00138525
-0.00142912
-0.00146799
-0.00150249
-0.00153314
-0.00156041
-0.00158471
-0.00160638
-0.00162574
-0.00164305
-0.00165854
-0.00167243
-0.00168489
-0.00169608
-0.00170615
-0.0017152
-0.00172337
-0.00173073
-0.00173737
-0.00174337
-0.0017488
-0.00175372
-0.00175817
-0.00176221
-0.00176588
-0.00176921
-0.00177224
-0.001775
-0.00177751
-0.0017798
-0.00178189
-0.0017838
-0.00178554
-0.00178713
-0.00178859
-0.00178993
-0.00179115
-0.00179227
-0.0017933
-0.00179424
-0.00179511
-0.00179591
-0.00179664
-0.00179731
-0.00179793
-0.0017985
-0.00179903
-0.00179951
-0.00179996
-0.00180037
-0.00180075
-0.0018011
-0.00180142
-0.00180172
-0.00180199
-0.00180224
-0.00180247
-0.00180268
-0.00180288
-0.00180306
-0.00180322
-0.00180337
-0.00180351
-0.00180363
-0.00180374
-0.00180384
-0.00180393
-0.00180401
-0.00180409
-0.00180415
-0.0018042
-0.00180425
-0.00180429
-0.00180432
-0.00180435
-0.00180437
-0.00180438
-0.00180438
0.00853393
0.00512381
0.00328122
0.00215846
0.00141293
0.000883073
0.000484601
0.000170811
-8.52298e-05
-0.00029957
-0.00048211
-0.000639284
-0.000775532
-0.000894159
-0.000997759
-0.00108845
-0.00116801
-0.00123792
-0.00129948
-0.00135377
-0.00140172
-0.00144414
-0.00148172
-0.00151505
-0.00154466
-0.00157099
-0.00159444
-0.00161534
-0.001634
-0.00165067
-0.00166559
-0.00167895
-0.00169092
-0.00170167
-0.00171132
-0.00172
-0.00172782
-0.00173486
-0.00174122
-0.00174695
-0.00175213
-0.00175682
-0.00176106
-0.00176491
-0.00176839
-0.00177156
-0.00177443
-0.00177705
-0.00177943
-0.00178159
-0.00178357
-0.00178537
-0.00178701
-0.00178851
-0.00178989
-0.00179114
-0.00179229
-0.00179334
-0.00179431
-0.0017952
-0.00179601
-0.00179676
-0.00179744
-0.00179807
-0.00179865
-0.00179919
-0.00179968
-0.00180013
-0.00180055
-0.00180093
-0.00180128
-0.00180161
-0.00180191
-0.00180218
-0.00180244
-0.00180267
-0.00180289
-0.00180309
-0.00180327
-0.00180344
-0.00180359
-0.00180373
-0.00180386
-0.00180398
-0.00180408
-0.00180418
-0.00180426
-0.00180434
-0.00180441
-0.00180447
-0.00180453
-0.00180458
-0.00180462
-0.00180465
-0.00180468
-0.0018047
-0.00180471
-0.00180472
-0.00180473
0.00667606
0.0037454
0.00221307
0.00130288
0.00071123
0.000297807
-9.52428e-06
-0.000250125
-0.000446255
-0.000610843
-0.000751625
-0.000873462
-0.000979645
-0.00107258
-0.00115414
-0.00122587
-0.00128907
-0.00134483
-0.00139411
-0.0014377
-0.00147633
-0.00151058
-0.001541
-0.00156803
-0.0015921
-0.00161353
-0.00163265
-0.00164971
-0.00166496
-0.0016786
-0.00169082
-0.00170176
-0.00171158
-0.0017204
-0.00172833
-0.00173546
-0.00174188
-0.00174767
-0.00175289
-0.0017576
-0.00176186
-0.00176572
-0.00176921
-0.00177237
-0.00177524
-0.00177784
-0.00178021
-0.00178236
-0.00178431
-0.00178609
-0.00178772
-0.0017892
-0.00179055
-0.00179179
-0.00179291
-0.00179395
-0.00179489
-0.00179576
-0.00179655
-0.00179728
-0.00179795
-0.00179856
-0.00179912
-0.00179964
-0.00180012
-0.00180056
-0.00180096
-0.00180133
-0.00180167
-0.00180199
-0.00180228
-0.00180254
-0.00180279
-0.00180302
-0.00180323
-0.00180342
-0.00180359
-0.00180376
-0.00180391
-0.00180404
-0.00180417
-0.00180428
-0.00180439
-0.00180448
-0.00180457
-0.00180465
-0.00180472
-0.00180479
-0.00180484
-0.00180489
-0.00180494
-0.00180498
-0.00180501
-0.00180504
-0.00180506
-0.00180508
-0.00180509
-0.0018051
-0.0018051
0.00451289
0.00215884
0.000993117
0.000331186
-8.22276e-05
-0.000361656
-0.000564681
-0.000721915
-0.000850059
-0.000958361
-0.00105203
-0.00113411
-0.00120653
-0.00127068
-0.0013276
-0.00137817
-0.00142312
-0.00146312
-0.00149872
-0.00153043
-0.00155869
-0.00158388
-0.00160635
-0.00162642
-0.00164433
-0.00166035
-0.00167467
-0.00168749
-0.00169897
-0.00170926
-0.00171849
-0.00172677
-0.00173422
-0.00174091
-0.00174693
-0.00175235
-0.00175724
-0.00176164
-0.00176562
-0.00176922
-0.00177247
-0.00177541
-0.00177807
-0.00178049
-0.00178268
-0.00178467
-0.00178647
-0.00178812
-0.00178961
-0.00179097
-0.00179222
-0.00179335
-0.00179438
-0.00179533
-0.00179619
-0.00179698
-0.0017977
-0.00179836
-0.00179897
-0.00179952
-0.00180003
-0.0018005
-0.00180093
-0.00180133
-0.00180169
-0.00180203
-0.00180234
-0.00180262
-0.00180288
-0.00180312
-0.00180334
-0.00180355
-0.00180373
-0.00180391
-0.00180407
-0.00180421
-0.00180435
-0.00180447
-0.00180459
-0.00180469
-0.00180479
-0.00180487
-0.00180495
-0.00180503
-0.00180509
-0.00180515
-0.00180521
-0.00180526
-0.0018053
-0.00180534
-0.00180537
-0.0018054
-0.00180543
-0.00180545
-0.00180546
-0.00180548
-0.00180549
-0.00180549
-0.0018055
0.00210189
0.000403808
-0.000352664
-0.00073856
-0.000953842
-0.00108448
-0.00117192
-0.00123701
-0.00129023
-0.00133666
-0.00137866
-0.00141722
-0.00145279
-0.00148555
-0.00151564
-0.00154318
-0.00156832
-0.00159118
-0.00161194
-0.00163075
-0.00164776
-0.00166312
-0.00167698
-0.00168947
-0.00170073
-0.00171087
-0.00172
-0.00172821
-0.00173561
-0.00174228
-0.00174828
-0.00175368
-0.00175856
-0.00176295
-0.00176691
-0.00177049
-0.00177372
-0.00177664
-0.00177927
-0.00178166
-0.00178382
-0.00178578
-0.00178756
-0.00178917
-0.00179063
-0.00179196
-0.00179316
-0.00179426
-0.00179526
-0.00179617
-0.001797
-0.00179776
-0.00179846
-0.00179909
-0.00179967
-0.0018002
-0.00180068
-0.00180112
-0.00180153
-0.0018019
-0.00180225
-0.00180256
-0.00180285
-0.00180311
-0.00180336
-0.00180358
-0.00180379
-0.00180398
-0.00180415
-0.00180432
-0.00180446
-0.0018046
-0.00180473
-0.00180484
-0.00180495
-0.00180505
-0.00180514
-0.00180522
-0.0018053
-0.00180537
-0.00180543
-0.00180549
-0.00180554
-0.00180559
-0.00180564
-0.00180568
-0.00180571
-0.00180575
-0.00180578
-0.0018058
-0.00180582
-0.00180584
-0.00180586
-0.00180587
-0.00180589
-0.00180589
-0.0018059
-0.00180591
-0.00180591
-0.000494435
-0.00147262
-0.00179078
-0.00188157
-0.00188439
-0.00185521
-0.00181855
-0.00178484
-0.00175788
-0.00173826
-0.00172519
-0.00171748
-0.00171388
-0.00171334
-0.00171498
-0.00171812
-0.00172224
-0.00172695
-0.00173198
-0.0017371
-0.00174218
-0.00174711
-0.00175183
-0.00175629
-0.00176048
-0.00176438
-0.001768
-0.00177133
-0.0017744
-0.00177721
-0.00177978
-0.00178213
-0.00178428
-0.00178623
-0.00178801
-0.00178963
-0.0017911
-0.00179244
-0.00179366
-0.00179477
-0.00179578
-0.00179669
-0.00179753
-0.00179829
-0.00179898
-0.00179961
-0.00180019
-0.00180071
-0.00180119
-0.00180162
-0.00180202
-0.00180239
-0.00180272
-0.00180302
-0.0018033
-0.00180356
-0.00180379
-0.00180401
-0.0018042
-0.00180438
-0.00180455
-0.0018047
-0.00180484
-0.00180497
-0.00180509
-0.0018052
-0.0018053
-0.00180539
-0.00180548
-0.00180556
-0.00180563
-0.00180569
-0.00180576
-0.00180581
-0.00180586
-0.00180591
-0.00180596
-0.001806
-0.00180603
-0.00180607
-0.0018061
-0.00180613
-0.00180615
-0.00180618
-0.0018062
-0.00180622
-0.00180624
-0.00180625
-0.00180627
-0.00180628
-0.00180629
-0.0018063
-0.00180631
-0.00180631
-0.00180632
-0.00180632
-0.00180633
-0.00180633
-0.00180633
-0.00321392
-0.00341623
-0.00328082
-0.00306626
-0.00284854
-0.00265331
-0.00248775
-0.00235157
-0.00224154
-0.00215357
-0.00208362
-0.00202814
-0.00198416
-0.00194927
-0.00192157
-0.00189952
-0.00188194
-0.00186789
-0.00185664
-0.0018476
-0.00184031
-0.00183443
-0.00182966
-0.00182578
-0.00182262
-0.00182003
-0.00181791
-0.00181616
-0.00181472
-0.00181352
-0.00181252
-0.00181169
-0.00181099
-0.00181041
-0.00180991
-0.00180949
-0.00180914
-0.00180883
-0.00180858
-0.00180835
-0.00180816
-0.001808
-0.00180785
-0.00180773
-0.00180762
-0.00180752
-0.00180744
-0.00180737
-0.0018073
-0.00180725
-0.0018072
-0.00180715
-0.00180711
-0.00180708
-0.00180705
-0.00180702
-0.00180699
-0.00180697
-0.00180695
-0.00180693
-0.00180692
-0.0018069
-0.00180689
-0.00180688
-0.00180686
-0.00180685
-0.00180685
-0.00180684
-0.00180683
-0.00180682
-0.00180682
-0.00180681
-0.00180681
-0.0018068
-0.0018068
-0.00180679
-0.00180679
-0.00180679
-0.00180678
-0.00180678
-0.00180678
-0.00180678
-0.00180677
-0.00180677
-0.00180677
-0.00180677
-0.00180677
-0.00180677
-0.00180676
-0.00180676
-0.00180676
-0.00180676
-0.00180676
-0.00180676
-0.00180676
-0.00180676
-0.00180676
-0.00180676
-0.00180676
-0.00591878
-0.00535649
-0.00477144
-0.00425217
-0.00381394
-0.00345272
-0.00315843
-0.00291997
-0.00272708
-0.00257097
-0.00244431
-0.0023412
-0.00225691
-0.00218772
-0.00213064
-0.00208335
-0.00204398
-0.00201105
-0.00198338
-0.00196003
-0.00194024
-0.0019234
-0.001909
-0.00189665
-0.00188602
-0.00187683
-0.00186886
-0.00186193
-0.00185588
-0.00185059
-0.00184595
-0.00184187
-0.00183826
-0.00183508
-0.00183226
-0.00182976
-0.00182753
-0.00182555
-0.00182378
-0.00182219
-0.00182078
-0.0018195
-0.00181836
-0.00181733
-0.00181641
-0.00181557
-0.00181482
-0.00181413
-0.00181352
-0.00181296
-0.00181245
-0.00181199
-0.00181157
-0.00181119
-0.00181084
-0.00181052
-0.00181024
-0.00180997
-0.00180973
-0.00180951
-0.00180931
-0.00180912
-0.00180895
-0.0018088
-0.00180866
-0.00180853
-0.00180841
-0.0018083
-0.00180819
-0.0018081
-0.00180802
-0.00180794
-0.00180786
-0.0018078
-0.00180774
-0.00180768
-0.00180763
-0.00180758
-0.00180754
-0.0018075
-0.00180746
-0.00180743
-0.00180739
-0.00180737
-0.00180734
-0.00180732
-0.0018073
-0.00180728
-0.00180726
-0.00180725
-0.00180723
-0.00180722
-0.00180721
-0.00180721
-0.0018072
-0.00180719
-0.00180719
-0.00180719
-0.00180719
-0.00845932
-0.00720149
-0.00619654
-0.00538835
-0.00474071
-0.00422193
-0.00380544
-0.00346984
-0.00319818
-0.00297715
-0.00279634
-0.00264762
-0.00252462
-0.00242235
-0.00233687
-0.00226507
-0.00220447
-0.00215309
-0.00210933
-0.00207192
-0.0020398
-0.00201213
-0.00198821
-0.00196745
-0.0019494
-0.00193364
-0.00191984
-0.00190774
-0.0018971
-0.00188772
-0.00187943
-0.00187209
-0.00186558
-0.0018598
-0.00185465
-0.00185006
-0.00184596
-0.00184229
-0.001839
-0.00183605
-0.0018334
-0.00183102
-0.00182888
-0.00182694
-0.0018252
-0.00182362
-0.00182219
-0.0018209
-0.00181973
-0.00181866
-0.0018177
-0.00181682
-0.00181602
-0.00181529
-0.00181463
-0.00181402
-0.00181347
-0.00181296
-0.0018125
-0.00181208
-0.00181169
-0.00181134
-0.00181101
-0.00181071
-0.00181044
-0.00181019
-0.00180996
-0.00180974
-0.00180955
-0.00180937
-0.0018092
-0.00180905
-0.00180891
-0.00180878
-0.00180867
-0.00180856
-0.00180846
-0.00180837
-0.00180828
-0.0018082
-0.00180813
-0.00180807
-0.00180801
-0.00180796
-0.00180791
-0.00180786
-0.00180782
-0.00180779
-0.00180775
-0.00180773
-0.0018077
-0.00180768
-0.00180766
-0.00180764
-0.00180763
-0.00180762
-0.00180761
-0.00180761
-0.00180761
-0.0106742
-0.0088389
-0.00747568
-0.00641408
-0.00558256
-0.0049252
-0.00440088
-0.00397913
-0.00363718
-0.00335786
-0.00312808
-0.00293781
-0.0027793
-0.00264648
-0.00253458
-0.00243986
-0.00235929
-0.00229046
-0.00223142
-0.00218059
-0.00213668
-0.0020986
-0.00206549
-0.00203662
-0.00201137
-0.00198923
-0.00196978
-0.00195264
-0.00193752
-0.00192414
-0.00191229
-0.00190177
-0.00189241
-0.00188407
-0.00187664
-0.00187
-0.00186405
-0.00185873
-0.00185396
-0.00184967
-0.00184581
-0.00184233
-0.0018392
-0.00183638
-0.00183383
-0.00183152
-0.00182943
-0.00182753
-0.00182582
-0.00182426
-0.00182284
-0.00182155
-0.00182038
-0.00181931
-0.00181834
-0.00181745
-0.00181663
-0.00181589
-0.00181521
-0.00181459
-0.00181402
-0.0018135
-0.00181302
-0.00181258
-0.00181218
-0.00181181
-0.00181147
-0.00181116
-0.00181087
-0.00181061
-0.00181037
-0.00181014
-0.00180994
-0.00180975
-0.00180957
-0.00180941
-0.00180927
-0.00180913
-0.00180901
-0.00180889
-0.00180879
-0.00180869
-0.00180861
-0.00180853
-0.00180846
-0.00180839
-0.00180833
-0.00180828
-0.00180823
-0.00180819
-0.00180815
-0.00180812
-0.0018081
-0.00180807
-0.00180805
-0.00180804
-0.00180803
-0.00180802
-0.00180802
-0.012394
-0.0101533
-0.00851902
-0.00726335
-0.00629074
-0.00552585
-0.00491663
-0.00442593
-0.00402674
-0.00369911
-0.00342809
-0.00320232
-0.00301303
-0.00285341
-0.0027181
-0.00260284
-0.00250424
-0.00241953
-0.00234649
-0.0022833
-0.00222844
-0.00218069
-0.00213899
-0.0021025
-0.00207049
-0.00204233
-0.00201752
-0.00199561
-0.00197623
-0.00195905
-0.0019438
-0.00193024
-0.00191816
-0.00190739
-0.00189776
-0.00188916
-0.00188145
-0.00187454
-0.00186833
-0.00186276
-0.00185774
-0.00185322
-0.00184914
-0.00184546
-0.00184213
-0.00183912
-0.00183639
-0.00183392
-0.00183168
-0.00182964
-0.00182779
-0.00182611
-0.00182457
-0.00182318
-0.0018219
-0.00182074
-0.00181968
-0.00181871
-0.00181782
-0.00181701
-0.00181626
-0.00181558
-0.00181496
-0.00181438
-0.00181386
-0.00181337
-0.00181293
-0.00181252
-0.00181214
-0.0018118
-0.00181148
-0.00181119
-0.00181092
-0.00181067
-0.00181045
-0.00181024
-0.00181004
-0.00180987
-0.0018097
-0.00180956
-0.00180942
-0.0018093
-0.00180918
-0.00180908
-0.00180898
-0.0018089
-0.00180882
-0.00180875
-0.00180869
-0.00180864
-0.00180859
-0.00180855
-0.00180851
-0.00180848
-0.00180846
-0.00180844
-0.00180842
-0.00180841
-0.00180841
-0.0134651
-0.0110278
-0.00923897
-0.00787562
-0.00682179
-0.00599181
-0.00532841
-0.00479132
-0.00435176
-0.00398862
-0.00368622
-0.00343261
-0.00321858
-0.00303696
-0.00288208
-0.0027494
-0.00263529
-0.00253678
-0.00245146
-0.00237732
-0.00231272
-0.00225628
-0.00220684
-0.00216345
-0.00212528
-0.00209163
-0.00206191
-0.00203561
-0.00201231
-0.00199162
-0.00197322
-0.00195685
-0.00194224
-0.0019292
-0.00191755
-0.00190711
-0.00189776
-0.00188937
-0.00188183
-0.00187504
-0.00186894
-0.00186343
-0.00185847
-0.00185398
-0.00184993
-0.00184626
-0.00184294
-0.00183992
-0.00183719
-0.0018347
-0.00183245
-0.00183039
-0.00182852
-0.00182682
-0.00182526
-0.00182384
-0.00182254
-0.00182136
-0.00182028
-0.00181928
-0.00181837
-0.00181754
-0.00181678
-0.00181608
-0.00181543
-0.00181484
-0.0018143
-0.0018138
-0.00181334
-0.00181292
-0.00181253
-0.00181217
-0.00181185
-0.00181154
-0.00181127
-0.00181101
-0.00181077
-0.00181056
-0.00181036
-0.00181018
-0.00181001
-0.00180986
-0.00180972
-0.0018096
-0.00180948
-0.00180938
-0.00180928
-0.0018092
-0.00180912
-0.00180906
-0.001809
-0.00180895
-0.0018089
-0.00180887
-0.00180884
-0.00180881
-0.0018088
-0.00180878
-0.00180878
-0.0137852
-0.0113692
-0.0095781
-0.00821235
-0.00714831
-0.00630279
-0.00562039
-0.00506253
-0.00460162
-0.00421741
-0.00389473
-0.00362196
-0.00339008
-0.00319197
-0.00302197
-0.00287551
-0.00274889
-0.00263905
-0.0025435
-0.00246016
-0.00238727
-0.00232339
-0.00226728
-0.00221789
-0.00217433
-0.00213586
-0.00210181
-0.00207164
-0.00204485
-0.00202104
-0.00199984
-0.00198095
-0.00196408
-0.00194901
-0.00193552
-0.00192343
-0.0019126
-0.00190286
-0.00189412
-0.00188625
-0.00187915
-0.00187276
-0.00186699
-0.00186177
-0.00185706
-0.00185279
-0.00184892
-0.00184542
-0.00184223
-0.00183934
-0.00183671
-0.00183432
-0.00183214
-0.00183015
-0.00182834
-0.00182669
-0.00182518
-0.00182379
-0.00182253
-0.00182137
-0.00182031
-0.00181934
-0.00181845
-0.00181763
-0.00181688
-0.00181619
-0.00181556
-0.00181498
-0.00181444
-0.00181395
-0.0018135
-0.00181308
-0.0018127
-0.00181235
-0.00181202
-0.00181172
-0.00181145
-0.0018112
-0.00181097
-0.00181075
-0.00181056
-0.00181038
-0.00181022
-0.00181007
-0.00180994
-0.00180982
-0.00180971
-0.00180961
-0.00180952
-0.00180944
-0.00180938
-0.00180932
-0.00180927
-0.00180922
-0.00180919
-0.00180916
-0.00180914
-0.00180913
-0.00180912
-0.0133502
-0.0111656
-0.00953524
-0.00827215
-0.00726843
-0.00645584
-0.00578882
-0.00523525
-0.00477179
-0.00438089
-0.00404916
-0.00376612
-0.00352351
-0.0033147
-0.00313433
-0.00297801
-0.00284213
-0.00272372
-0.00262026
-0.00252966
-0.00245017
-0.00238028
-0.00231871
-0.00226439
-0.00221638
-0.00217389
-0.00213621
-0.00210277
-0.00207304
-0.00204657
-0.00202298
-0.00200193
-0.00198312
-0.0019663
-0.00195123
-0.00193773
-0.0019256
-0.00191471
-0.00190492
-0.0018961
-0.00188815
-0.00188098
-0.0018745
-0.00186865
-0.00186336
-0.00185856
-0.00185422
-0.00185028
-0.0018467
-0.00184345
-0.00184049
-0.0018378
-0.00183535
-0.00183312
-0.00183108
-0.00182922
-0.00182752
-0.00182596
-0.00182454
-0.00182324
-0.00182204
-0.00182095
-0.00181995
-0.00181903
-0.00181818
-0.0018174
-0.00181669
-0.00181603
-0.00181543
-0.00181488
-0.00181437
-0.0018139
-0.00181346
-0.00181307
-0.0018127
-0.00181237
-0.00181206
-0.00181177
-0.00181151
-0.00181127
-0.00181105
-0.00181085
-0.00181067
-0.0018105
-0.00181035
-0.00181022
-0.00181009
-0.00180998
-0.00180988
-0.0018098
-0.00180972
-0.00180965
-0.00180959
-0.00180955
-0.00180951
-0.00180948
-0.00180945
-0.00180944
-0.00180943
-0.0121867
-0.0104921
-0.00916735
-0.00809215
-0.00720442
-0.00646335
-0.00583978
-0.00531171
-0.00486209
-0.00447746
-0.00414707
-0.00386222
-0.00361583
-0.00340209
-0.00321616
-0.00305404
-0.00291236
-0.00278829
-0.00267943
-0.00258374
-0.00249949
-0.00242519
-0.00235958
-0.00230154
-0.00225013
-0.00220454
-0.00216405
-0.00212805
-0.002096
-0.00206744
-0.00204195
-0.00201918
-0.00199881
-0.00198058
-0.00196424
-0.00194958
-0.00193641
-0.00192457
-0.00191392
-0.00190432
-0.00189567
-0.00188786
-0.00188081
-0.00187443
-0.00186866
-0.00186343
-0.00185869
-0.00185439
-0.00185048
-0.00184693
-0.0018437
-0.00184076
-0.00183808
-0.00183564
-0.00183341
-0.00183138
-0.00182952
-0.00182781
-0.00182626
-0.00182483
-0.00182353
-0.00182233
-0.00182123
-0.00182022
-0.0018193
-0.00181845
-0.00181766
-0.00181695
-0.00181628
-0.00181568
-0.00181512
-0.0018146
-0.00181413
-0.00181369
-0.00181329
-0.00181292
-0.00181258
-0.00181227
-0.00181199
-0.00181173
-0.00181148
-0.00181127
-0.00181107
-0.00181088
-0.00181072
-0.00181057
-0.00181043
-0.00181031
-0.0018102
-0.0018101
-0.00181002
-0.00180995
-0.00180988
-0.00180983
-0.00180979
-0.00180975
-0.00180973
-0.00180971
-0.0018097
-0.0106059
-0.00956483
-0.00860629
-0.00775265
-0.00700556
-0.00635584
-0.00579225
-0.00530354
-0.00487945
-0.00451097
-0.0041903
-0.00391078
-0.00366672
-0.00345327
-0.00326629
-0.00310225
-0.00295812
-0.00283131
-0.00271958
-0.00262101
-0.00253394
-0.00245693
-0.00238874
-0.00232828
-0.00227462
-0.00222695
-0.00218453
-0.00214676
-0.00211309
-0.00208304
-0.0020562
-0.00203219
-0.0020107
-0.00199144
-0.00197417
-0.00195866
-0.00194472
-0.00193217
-0.00192088
-0.0019107
-0.00190152
-0.00189323
-0.00188574
-0.00187896
-0.00187282
-0.00186726
-0.00186222
-0.00185764
-0.00185348
-0.0018497
-0.00184626
-0.00184312
-0.00184027
-0.00183766
-0.00183528
-0.00183311
-0.00183113
-0.00182931
-0.00182765
-0.00182613
-0.00182473
-0.00182345
-0.00182228
-0.0018212
-0.00182021
-0.0018193
-0.00181846
-0.00181769
-0.00181699
-0.00181634
-0.00181574
-0.00181519
-0.00181468
-0.00181421
-0.00181378
-0.00181339
-0.00181302
-0.00181269
-0.00181238
-0.0018121
-0.00181185
-0.00181161
-0.0018114
-0.0018112
-0.00181102
-0.00181086
-0.00181072
-0.00181059
-0.00181047
-0.00181037
-0.00181028
-0.0018102
-0.00181013
-0.00181007
-0.00181003
-0.00180999
-0.00180996
-0.00180995
-0.00180994
-0.0092879
-0.0086812
-0.00801102
-0.0073502
-0.00673455
-0.00617582
-0.00567577
-0.00523167
-0.00483889
-0.0044923
-0.00418679
-0.00391761
-0.00368042
-0.00347135
-0.00328697
-0.00312427
-0.00298058
-0.00285359
-0.00274127
-0.00264184
-0.00255373
-0.00247559
-0.00240623
-0.00234461
-0.00228981
-0.00224102
-0.00219756
-0.00215879
-0.00212419
-0.00209327
-0.00206561
-0.00204085
-0.00201867
-0.00199878
-0.00198091
-0.00196486
-0.00195043
-0.00193743
-0.00192572
-0.00191516
-0.00190563
-0.00189702
-0.00188923
-0.00188218
-0.0018758
-0.00187001
-0.00186476
-0.00185999
-0.00185566
-0.00185171
-0.00184813
-0.00184486
-0.00184188
-0.00183916
-0.00183667
-0.0018344
-0.00183233
-0.00183043
-0.00182869
-0.0018271
-0.00182564
-0.0018243
-0.00182307
-0.00182194
-0.00182091
-0.00181995
-0.00181908
-0.00181827
-0.00181753
-0.00181685
-0.00181622
-0.00181564
-0.00181511
-0.00181462
-0.00181417
-0.00181375
-0.00181337
-0.00181302
-0.0018127
-0.0018124
-0.00181213
-0.00181189
-0.00181166
-0.00181145
-0.00181127
-0.0018111
-0.00181095
-0.00181081
-0.00181069
-0.00181058
-0.00181048
-0.0018104
-0.00181033
-0.00181027
-0.00181022
-0.00181018
-0.00181015
-0.00181014
-0.00181013
-0.00833076
-0.0079565
-0.0074703
-0.00694987
-0.00643938
-0.00595906
-0.0055174
-0.00511675
-0.00475632
-0.00443381
-0.00414621
-0.00389031
-0.00366295
-0.00346112
-0.00328204
-0.00312317
-0.00298223
-0.00285717
-0.00274615
-0.00264757
-0.00255998
-0.0024821
-0.00241282
-0.00235114
-0.00229619
-0.00224719
-0.00220347
-0.00216443
-0.00212953
-0.00209831
-0.00207036
-0.00204531
-0.00202285
-0.00200268
-0.00198456
-0.00196827
-0.0019536
-0.00194039
-0.00192848
-0.00191773
-0.00190802
-0.00189924
-0.0018913
-0.00188411
-0.0018776
-0.00187169
-0.00186632
-0.00186144
-0.00185701
-0.00185298
-0.00184931
-0.00184596
-0.0018429
-0.00184012
-0.00183757
-0.00183524
-0.00183312
-0.00183117
-0.00182938
-0.00182775
-0.00182625
-0.00182487
-0.00182361
-0.00182245
-0.00182138
-0.0018204
-0.0018195
-0.00181867
-0.00181791
-0.0018172
-0.00181656
-0.00181596
-0.00181541
-0.00181491
-0.00181444
-0.00181401
-0.00181362
-0.00181326
-0.00181293
-0.00181262
-0.00181234
-0.00181209
-0.00181185
-0.00181164
-0.00181145
-0.00181127
-0.00181112
-0.00181098
-0.00181085
-0.00181074
-0.00181064
-0.00181055
-0.00181048
-0.00181042
-0.00181037
-0.00181033
-0.0018103
-0.00181028
-0.00181027
-0.00767246
-0.0073943
-0.00700854
-0.00657986
-0.00614632
-0.0057283
-0.00533616
-0.0049745
-0.00464464
-0.00434606
-0.0040772
-0.003836
-0.00362019
-0.00342744
-0.00325553
-0.00310234
-0.00296589
-0.00284439
-0.00273622
-0.00263989
-0.0025541
-0.00247766
-0.00240952
-0.00234875
-0.00229452
-0.0022461
-0.00220284
-0.00216415
-0.00212953
-0.00209853
-0.00207075
-0.00204583
-0.00202345
-0.00200335
-0.00198528
-0.00196902
-0.00195437
-0.00194116
-0.00192925
-0.00191849
-0.00190876
-0.00189997
-0.00189201
-0.0018848
-0.00187825
-0.00187232
-0.00186693
-0.00186203
-0.00185757
-0.00185351
-0.00184981
-0.00184644
-0.00184337
-0.00184056
-0.00183799
-0.00183564
-0.00183349
-0.00183153
-0.00182973
-0.00182807
-0.00182656
-0.00182517
-0.00182389
-0.00182272
-0.00182164
-0.00182064
-0.00181973
-0.00181889
-0.00181812
-0.00181741
-0.00181675
-0.00181615
-0.00181559
-0.00181508
-0.0018146
-0.00181417
-0.00181377
-0.0018134
-0.00181307
-0.00181276
-0.00181247
-0.00181221
-0.00181198
-0.00181176
-0.00181157
-0.00181139
-0.00181123
-0.00181108
-0.00181095
-0.00181084
-0.00181074
-0.00181065
-0.00181058
-0.00181052
-0.00181046
-0.00181042
-0.0018104
-0.00181038
-0.00181037
-0.0072099
-0.00695212
-0.00661647
-0.00624509
-0.00586584
-0.00549551
-0.00514371
-0.00481556
-0.00451325
-0.00423722
-0.00398681
-0.00376072
-0.00355729
-0.00337474
-0.00321124
-0.003065
-0.00293434
-0.00281767
-0.00271353
-0.00262058
-0.00253764
-0.0024636
-0.00239749
-0.00233845
-0.00228569
-0.00223852
-0.00219632
-0.00215854
-0.0021247
-0.00209437
-0.00206716
-0.00204274
-0.00202079
-0.00200106
-0.0019833
-0.00196731
-0.0019529
-0.0019399
-0.00192816
-0.00191756
-0.00190797
-0.00189929
-0.00189143
-0.0018843
-0.00187784
-0.00187197
-0.00186663
-0.00186178
-0.00185737
-0.00185335
-0.00184968
-0.00184634
-0.00184328
-0.0018405
-0.00183795
-0.00183561
-0.00183348
-0.00183152
-0.00182973
-0.00182809
-0.00182658
-0.00182519
-0.00182392
-0.00182275
-0.00182168
-0.00182069
-0.00181978
-0.00181894
-0.00181817
-0.00181745
-0.0018168
-0.0018162
-0.00181564
-0.00181513
-0.00181466
-0.00181422
-0.00181382
-0.00181346
-0.00181312
-0.00181281
-0.00181252
-0.00181226
-0.00181203
-0.00181181
-0.00181161
-0.00181144
-0.00181128
-0.00181113
-0.001811
-0.00181089
-0.00181079
-0.0018107
-0.00181063
-0.00181056
-0.00181051
-0.00181047
-0.00181044
-0.00181042
-0.00181041
-0.00684659
-0.00658554
-0.00627542
-0.00594059
-0.00559981
-0.00526574
-0.00494641
-0.00464653
-0.00436853
-0.00411322
-0.00388041
-0.00366926
-0.00347852
-0.00330677
-0.00315247
-0.00301409
-0.00289015
-0.00277924
-0.00268005
-0.00259138
-0.00251211
-0.00244126
-0.00237792
-0.00232127
-0.00227059
-0.00222523
-0.00218461
-0.00214821
-0.00211559
-0.00208631
-0.00206003
-0.00203642
-0.00201519
-0.00199609
-0.00197889
-0.00196339
-0.00194941
-0.00193679
-0.00192539
-0.00191509
-0.00190576
-0.00189732
-0.00188967
-0.00188273
-0.00187643
-0.0018707
-0.0018655
-0.00186077
-0.00185646
-0.00185253
-0.00184895
-0.00184568
-0.00184269
-0.00183996
-0.00183747
-0.00183518
-0.00183309
-0.00183117
-0.00182942
-0.00182781
-0.00182632
-0.00182496
-0.00182371
-0.00182257
-0.00182151
-0.00182054
-0.00181964
-0.00181882
-0.00181806
-0.00181736
-0.00181671
-0.00181612
-0.00181557
-0.00181506
-0.0018146
-0.00181417
-0.00181378
-0.00181342
-0.00181308
-0.00181278
-0.0018125
-0.00181224
-0.00181201
-0.00181179
-0.0018116
-0.00181142
-0.00181126
-0.00181112
-0.00181099