/*--------------------------------*- C++ -*----------------------------------*\
  =========                 |
  \\      /  F ield         | OpenFOAM: The Open Source CFD Toolbox
   \\    /   O peration     | Website:  https://openfoam.org
    \\  /    A nd           | Version:  7
     \\/     M anipulation  |
\*---------------------------------------------------------------------------*/
FoamFile
{
    version     2.0;
    format      ascii;
    class       volScalarField;
    location    "1123200.0";
    object      Lambda;
}
// * * * * * * * * * * * * * * * * * * * * * * * * * * * * * * * * * * * * * //

dimensions      [0 -1 0 0 0 0 0];

internalField   nonuniform List<scalar> 
5346
(
1.49828
1.41053
1.55169
1.7248
1.92477
2.14858
2.39362
2.65828
2.94086
3.23828
3.54554
3.85629
4.16387
4.4624
4.74731
5.01535
5.26457
5.49392
5.70317
5.89269
6.06333
6.21625
6.35281
6.47445
6.58258
6.67862
6.76384
6.83949
6.90662
6.96626
7.01927
7.06643
7.10845
7.14592
7.17938
7.2093
7.23609
7.26011
7.28165
7.30105
7.31848
7.33419
7.34837
7.36118
7.37276
7.38325
7.39275
7.40137
7.40921
7.41634
7.42283
7.42873
7.43412
7.43904
7.44353
7.44763
7.45139
7.45483
7.45799
7.46088
7.46353
7.46597
7.4682
7.47026
7.47215
7.47389
7.4755
7.47697
7.47833
7.47959
7.48074
7.48181
7.48279
7.48369
7.48452
7.48529
7.486
7.48665
7.48724
7.48779
7.48829
7.48875
7.48917
7.48956
7.4899
7.49022
7.49051
7.49076
7.49099
7.49119
7.49137
7.49153
7.49166
7.49177
7.49186
7.49193
7.49198
7.49202
7.49204
1.47919
1.41198
1.54476
1.69765
1.87121
2.06705
2.28528
2.52534
2.78558
3.06275
3.35189
3.64695
3.94172
4.23071
4.5095
4.7749
5.02472
5.2576
5.47288
5.67047
5.85074
6.01437
6.16231
6.29564
6.41551
6.52309
6.61953
6.70592
6.78328
6.85255
6.91458
6.97016
7.01999
7.06468
7.1048
7.14084
7.17326
7.20243
7.22873
7.25243
7.27385
7.29318
7.31068
7.32651
7.34088
7.35389
7.36571
7.37646
7.38624
7.39514
7.40324
7.41064
7.41739
7.42355
7.42919
7.43435
7.43907
7.4434
7.44736
7.45101
7.45435
7.45741
7.46023
7.46282
7.46521
7.46741
7.46943
7.47129
7.47301
7.47459
7.47605
7.47739
7.47863
7.47977
7.48082
7.48179
7.48268
7.4835
7.48425
7.48494
7.48557
7.48615
7.48669
7.48717
7.48761
7.48801
7.48837
7.48869
7.48898
7.48924
7.48946
7.48966
7.48983
7.48997
7.49008
7.49017
7.49024
7.49028
7.4903
1.47093
1.41057
1.53794
1.67549
1.82614
1.99658
2.19067
2.40933
2.65087
2.91148
3.18586
3.468
3.75195
4.03254
4.30558
4.56792
4.8173
5.05216
5.27157
5.47507
5.66268
5.83472
5.99181
6.13474
6.26441
6.38178
6.48784
6.58356
6.66986
6.74763
6.81769
6.88081
6.93767
6.9889
7.03509
7.07675
7.11434
7.14828
7.17896
7.20668
7.23179
7.25451
7.27511
7.29379
7.31075
7.32615
7.34015
7.3529
7.3645
7.37509
7.38472
7.39353
7.40157
7.40891
7.41563
7.42179
7.42742
7.43259
7.43733
7.44167
7.44567
7.44933
7.45271
7.45581
7.45866
7.46129
7.46371
7.46593
7.46799
7.46988
7.47162
7.47323
7.47471
7.47608
7.47733
7.47849
7.47956
7.48054
7.48144
7.48227
7.48303
7.48372
7.48436
7.48494
7.48546
7.48594
7.48637
7.48676
7.4871
7.48741
7.48768
7.48791
7.48811
7.48828
7.48842
7.48853
7.48861
7.48866
7.48868
1.47489
1.41052
1.52853
1.65217
1.78401
1.93354
2.10758
2.30851
2.53473
2.78195
3.0444
3.31594
3.59083
3.86413
4.13187
4.39102
4.63929
4.87504
5.09713
5.30487
5.498
5.67658
5.84096
5.99168
6.12942
6.25498
6.36919
6.47288
6.56691
6.6521
6.72922
6.799
6.86213
6.91923
6.97087
7.0176
7.05989
7.09818
7.13285
7.16428
7.19276
7.21861
7.24206
7.26337
7.28273
7.30034
7.31637
7.33098
7.34428
7.35642
7.36749
7.3776
7.38684
7.39529
7.40302
7.4101
7.41659
7.42254
7.428
7.43301
7.43761
7.44183
7.44572
7.44929
7.45259
7.45561
7.4584
7.46097
7.46334
7.46552
7.46753
7.46939
7.47109
7.47267
7.47412
7.47545
7.47668
7.47781
7.47885
7.47981
7.48068
7.48148
7.48221
7.48288
7.48349
7.48404
7.48454
7.48498
7.48538
7.48573
7.48604
7.48631
7.48654
7.48674
7.4869
7.48702
7.48711
7.48717
7.4872
1.49108
1.41493
1.5179
1.62565
1.74096
1.87412
2.03294
2.22036
2.4348
2.67158
2.92464
3.18769
3.45511
3.72219
3.98522
4.24125
4.48808
4.72397
4.94769
5.15839
5.35561
5.53921
5.70931
5.86628
6.01061
6.14293
6.26394
6.37438
6.475
6.56657
6.64979
6.72539
6.79401
6.85627
6.91276
6.96399
7.01048
7.05265
7.09093
7.12566
7.15721
7.18588
7.21193
7.23561
7.25717
7.27679
7.29467
7.31096
7.32582
7.33938
7.35175
7.36306
7.3734
7.38286
7.39152
7.39945
7.40672
7.41339
7.4195
7.42511
7.43027
7.43501
7.43937
7.44338
7.44706
7.45046
7.45359
7.45647
7.45912
7.46157
7.46383
7.46591
7.46782
7.46959
7.47121
7.47271
7.47409
7.47535
7.47652
7.47759
7.47857
7.47947
7.48029
7.48104
7.48172
7.48233
7.48289
7.48339
7.48384
7.48423
7.48458
7.48488
7.48514
7.48536
7.48553
7.48567
7.48578
7.48584
7.48588
1.51894
1.4235
1.50581
1.59499
1.69515
1.81601
1.96447
2.14286
2.34919
2.57851
2.82453
3.081
3.34244
3.60439
3.86332
4.11649
4.36171
4.59728
4.82187
5.03455
5.23473
5.42209
5.59662
5.7585
5.9081
6.0459
6.1725
6.28853
6.39467
6.49161
6.58002
6.66058
6.73392
6.80065
6.86133
6.9165
6.96665
7.01223
7.05366
7.09134
7.12558
7.15675
7.18509
7.2109
7.2344
7.25581
7.27533
7.29313
7.30937
7.3242
7.33774
7.35012
7.36144
7.3718
7.38129
7.38998
7.39795
7.40525
7.41196
7.41811
7.42377
7.42896
7.43374
7.43814
7.44218
7.44591
7.44934
7.45249
7.45541
7.45809
7.46056
7.46284
7.46494
7.46687
7.46866
7.4703
7.47181
7.4732
7.47447
7.47565
7.47672
7.47771
7.47861
7.47942
7.48017
7.48085
7.48146
7.482
7.48249
7.48293
7.48331
7.48364
7.48392
7.48416
7.48435
7.4845
7.48462
7.48469
7.48473
1.55861
1.43456
1.48993
1.55848
1.64539
1.75809
1.90102
2.07483
2.27671
2.50144
2.7427
2.99437
3.25122
3.50905
3.76456
4.01518
4.25881
4.49376
4.7187
4.93261
5.13481
5.3249
5.50274
5.66838
5.82208
5.96421
6.09527
6.21581
6.32645
6.4278
6.5205
6.60519
6.68248
6.75296
6.81718
6.87567
6.92893
6.97742
7.02156
7.06173
7.09832
7.1316
7.16194
7.18957
7.21475
7.23771
7.25864
7.27775
7.29519
7.31111
7.32567
7.33897
7.35115
7.36229
7.37249
7.38184
7.39041
7.39827
7.40548
7.41211
7.41819
7.42379
7.42893
7.43366
7.43801
7.44202
7.44571
7.44911
7.45224
7.45512
7.45778
7.46024
7.46249
7.46457
7.46649
7.46826
7.46988
7.47138
7.47275
7.47401
7.47516
7.47622
7.47719
7.47807
7.47887
7.4796
7.48025
7.48084
7.48137
7.48183
7.48224
7.4826
7.4829
7.48315
7.48336
7.48353
7.48365
7.48373
7.48377
1.60678
1.43934
1.4633
1.51275
1.59064
1.70021
1.84247
2.01596
2.2169
2.43978
2.6784
2.92693
3.18047
3.43514
3.68791
3.93636
4.1785
4.41267
4.63754
4.85209
5.05558
5.24752
5.42769
5.59608
5.75282
5.89823
6.0327
6.15674
6.27088
6.37571
6.47181
6.5598
6.64026
6.71376
6.78085
6.84205
6.89785
6.94872
6.99507
7.03731
7.07579
7.11087
7.14282
7.17197
7.19854
7.22277
7.24488
7.26506
7.2835
7.30034
7.31573
7.32981
7.34268
7.35447
7.36527
7.37516
7.38423
7.39255
7.40019
7.4072
7.41364
7.41956
7.425
7.43001
7.43462
7.43886
7.44276
7.44636
7.44967
7.45272
7.45554
7.45813
7.46052
7.46272
7.46475
7.46662
7.46833
7.46991
7.47136
7.4727
7.47392
7.47504
7.47606
7.47699
7.47784
7.4786
7.4793
7.47992
7.48047
7.48096
7.4814
7.48177
7.48209
7.48236
7.48258
7.48276
7.48288
7.48297
7.48301
1.64814
1.424
1.41653
1.45435
1.53065
1.64321
1.78975
1.96693
2.1701
2.39359
2.63148
2.87836
3.12977
3.3822
3.63287
3.87954
4.12032
4.35362
4.57813
4.79284
4.99697
5.19
5.37165
5.54184
5.70066
5.84835
5.98526
6.11181
6.22851
6.3359
6.43453
6.52499
6.60783
6.68362
6.75289
6.81615
6.87389
6.92658
6.97464
7.01846
7.05843
7.09486
7.12809
7.1584
7.18605
7.21127
7.23429
7.25532
7.27452
7.29207
7.30811
7.32278
7.33621
7.3485
7.35976
7.37007
7.37953
7.38821
7.39617
7.40348
7.41019
7.41636
7.42204
7.42726
7.43206
7.43648
7.44055
7.4443
7.44775
7.45093
7.45386
7.45656
7.45905
7.46135
7.46346
7.4654
7.46719
7.46884
7.47035
7.47173
7.47301
7.47417
7.47523
7.4762
7.47708
7.47788
7.4786
7.47925
7.47983
7.48034
7.48079
7.48118
7.48151
7.48179
7.48202
7.4822
7.48233
7.48242
7.48246
1.65262
1.37721
1.34439
1.38286
1.46709
1.58927
1.74485
1.92928
2.1374
2.36361
2.60241
2.84894
3.09927
3.35027
3.59943
3.84468
4.08424
4.3166
4.54051
4.75494
4.95914
5.15256
5.3349
5.50604
5.66603
5.81506
5.95344
6.08157
6.19989
6.30893
6.40921
6.5013
6.58573
6.66305
6.73378
6.79845
6.85752
6.91145
6.96067
7.00559
7.04657
7.08394
7.11805
7.14916
7.17755
7.20346
7.22712
7.24872
7.26845
7.28649
7.30298
7.31806
7.33186
7.3445
7.35607
7.36668
7.3764
7.38532
7.3935
7.40102
7.40792
7.41426
7.42009
7.42546
7.43039
7.43493
7.43911
7.44297
7.44651
7.44978
7.45279
7.45556
7.45812
7.46047
7.46264
7.46464
7.46647
7.46816
7.46971
7.47113
7.47244
7.47363
7.47472
7.47572
7.47662
7.47744
7.47818
7.47884
7.47943
7.47996
7.48042
7.48082
7.48116
7.48145
7.48168
7.48187
7.482
7.48209
7.48214
1.56575
1.28191
1.24924
1.30336
1.40449
1.54224
1.71094
1.90549
2.12067
2.35122
2.59222
2.83948
3.08961
3.33986
3.58802
3.83215
4.07061
4.30196
4.525
4.73875
4.94247
5.13562
5.31789
5.48915
5.64942
5.79888
5.93779
6.06654
6.18556
6.29534
6.39639
6.48925
6.57445
6.65253
6.72401
6.78938
6.84913
6.90371
6.95354
6.99902
7.04053
7.0784
7.11296
7.1445
7.17328
7.19956
7.22354
7.24545
7.26546
7.28375
7.30047
7.31577
7.32977
7.34258
7.35432
7.36507
7.37493
7.38397
7.39227
7.39989
7.40688
7.41331
7.41922
7.42466
7.42966
7.43426
7.43849
7.44239
7.44598
7.44929
7.45234
7.45515
7.45774
7.46012
7.46231
7.46433
7.46619
7.4679
7.46947
7.47091
7.47223
7.47344
7.47454
7.47555
7.47646
7.47729
7.47803
7.4787
7.4793
7.47983
7.4803
7.4807
7.48105
7.48134
7.48158
7.48176
7.4819
7.48199
7.48204
1.34152
1.13442
1.13971
1.22385
1.34938
1.50727
1.69202
1.89868
2.12234
2.35834
2.6025
2.85132
3.10193
3.352
3.59952
3.84274
4.08013
4.31034
4.53222
4.74485
4.94753
5.13974
5.32119
5.49173
5.6514
5.80035
5.93886
6.06729
6.18606
6.29564
6.39656
6.48932
6.57446
6.65251
6.72397
6.78934
6.8491
6.90369
6.95354
6.99905
7.04058
7.07849
7.11307
7.14463
7.17343
7.19972
7.22373
7.24565
7.26567
7.28397
7.3007
7.31601
7.33001
7.34283
7.35456
7.36532
7.37518
7.38422
7.39251
7.40013
7.40712
7.41355
7.41945
7.42488
7.42988
7.43448
7.43871
7.4426
7.44619
7.44949
7.45254
7.45534
7.45792
7.4603
7.46249
7.46451
7.46636
7.46807
7.46963
7.47107
7.47238
7.47359
7.47469
7.47569
7.4766
7.47743
7.47817
7.47884
7.47944
7.47997
7.48043
7.48083
7.48118
7.48147
7.48171
7.48189
7.48203
7.48212
7.48216
1.07976
0.964371
1.0349
1.15668
1.31042
1.49079
1.69302
1.91268
2.14549
2.38753
2.63543
2.88634
3.13791
3.38813
3.63523
3.8776
4.11383
4.34265
4.56301
4.77404
4.97507
5.16563
5.34545
5.51441
5.67256
5.82006
5.95719
6.08432
6.20187
6.31031
6.41016
6.50193
6.58614
6.66333
6.73399
6.79862
6.8577
6.91166
6.96093
7.00589
7.04693
7.08437
7.11853
7.1497
7.17814
7.20409
7.22779
7.24942
7.26918
7.28724
7.30375
7.31884
7.33265
7.34529
7.35686
7.36747
7.37718
7.3861
7.39427
7.40177
7.40866
7.41499
7.42081
7.42616
7.43108
7.4356
7.43977
7.4436
7.44713
7.45038
7.45338
7.45614
7.45868
7.46102
7.46317
7.46516
7.46698
7.46866
7.4702
7.47161
7.4729
7.47409
7.47517
7.47615
7.47705
7.47786
7.47859
7.47925
7.47984
7.48036
7.48081
7.48121
7.48155
7.48183
7.48206
7.48225
7.48238
7.48247
7.48251
0.835173
0.821953
0.958324
1.11476
1.29671
1.49963
1.7193
1.95186
2.19379
2.44197
2.69378
2.94699
3.19969
3.45015
3.6968
3.9382
4.17301
4.40009
4.61844
4.82726
5.02595
5.21408
5.39141
5.55787
5.71353
5.85857
5.99331
6.11812
6.23343
6.33974
6.43755
6.52739
6.60978
6.68526
6.75431
6.81745
6.87512
6.92778
6.97584
7.01969
7.05968
7.09616
7.12944
7.15978
7.18747
7.21273
7.23577
7.25682
7.27604
7.29359
7.30963
7.3243
7.33772
7.34999
7.36123
7.37153
7.38096
7.38961
7.39755
7.40483
7.41151
7.41765
7.42329
7.42848
7.43325
7.43764
7.44168
7.44539
7.44882
7.45197
7.45487
7.45754
7.46001
7.46227
7.46436
7.46628
7.46804
7.46967
7.47116
7.47253
7.47378
7.47493
7.47597
7.47693
7.47779
7.47858
7.47929
7.47992
7.48049
7.48099
7.48144
7.48182
7.48215
7.48242
7.48265
7.48282
7.48295
7.48304
7.48308
0.656519
0.741248
0.923958
1.10816
1.31665
1.54065
1.77663
2.02122
2.27161
2.52548
2.78091
3.03621
3.28982
3.54028
3.7862
4.02625
4.25921
4.484
4.69971
4.90561
5.10114
5.28594
5.45983
5.62277
5.77489
5.9164
6.04766
6.16906
6.28107
6.3842
6.47896
6.5659
6.64555
6.71843
6.78505
6.8459
6.90144
6.95211
6.99832
7.04045
7.07886
7.11387
7.14579
7.17489
7.20141
7.22561
7.24768
7.26782
7.28621
7.303
7.31834
7.33236
7.34518
7.35691
7.36765
7.37748
7.38649
7.39475
7.40232
7.40927
7.41565
7.4215
7.42689
7.43183
7.43638
7.44057
7.44442
7.44796
7.45122
7.45423
7.45699
7.45954
7.46189
7.46404
7.46603
7.46786
7.46955
7.47109
7.47251
7.47381
7.47501
7.4761
7.4771
7.47801
7.47883
7.47958
7.48025
7.48086
7.4814
7.48188
7.4823
7.48266
7.48297
7.48324
7.48345
7.48362
7.48374
7.48382
7.48386
0.56831
0.729632
0.934458
1.14525
1.37808
1.62112
1.87166
2.12666
2.38413
2.64257
2.9007
3.1573
3.41114
3.66099
3.90555
4.14362
4.37405
4.59583
4.8081
5.01019
5.2016
5.38205
5.5514
5.7097
5.85711
5.99393
6.12053
6.23738
6.34495
6.4438
6.53446
6.61748
6.69342
6.7628
6.82613
6.88389
6.93655
6.98454
7.02826
7.06809
7.10436
7.13739
7.16748
7.1949
7.21987
7.24264
7.2634
7.28233
7.29961
7.31538
7.32979
7.34294
7.35498
7.36598
7.37604
7.38526
7.39371
7.40144
7.40854
7.41505
7.42102
7.42651
7.43155
7.43618
7.44043
7.44435
7.44795
7.45127
7.45432
7.45713
7.45972
7.4621
7.4643
7.46632
7.46818
7.46989
7.47146
7.47291
7.47423
7.47545
7.47657
7.47759
7.47852
7.47937
7.48014
7.48084
7.48147
7.48204
7.48254
7.48299
7.48338
7.48372
7.48402
7.48426
7.48446
7.48462
7.48473
7.48481
7.48484
0.56276
0.771518
0.994267
1.23517
1.4903
1.75029
2.01261
2.27521
2.53726
2.79813
3.05721
3.31367
3.56655
3.81472
4.057
4.29219
4.51919
4.73701
4.94483
5.14204
5.32821
5.50311
5.66669
5.81907
5.96049
6.09133
6.21201
6.32305
6.42499
6.5184
6.60385
6.68191
6.75315
6.8181
6.87727
6.93115
6.98019
7.0248
7.06539
7.10232
7.1359
7.16647
7.19427
7.21959
7.24263
7.26363
7.28275
7.30018
7.31608
7.33058
7.34382
7.35592
7.36697
7.37707
7.38631
7.39477
7.40252
7.40962
7.41612
7.42209
7.42756
7.43259
7.43721
7.44145
7.44536
7.44894
7.45224
7.45528
7.45807
7.46065
7.46302
7.4652
7.46721
7.46906
7.47076
7.47233
7.47377
7.47509
7.47631
7.47742
7.47844
7.47938
7.48023
7.48101
7.48171
7.48235
7.48293
7.48345
7.48391
7.48432
7.48468
7.48499
7.48526
7.48548
7.48566
7.48581
7.48591
7.48598
7.48601
0.597715
0.85578
1.11766
1.39164
1.66738
1.94002
2.20882
2.47408
2.7365
2.99645
3.25384
3.50812
3.7584
4.00356
4.24237
4.47359
4.69605
4.9088
5.11099
5.30207
5.48167
5.64964
5.80605
5.95109
6.08509
6.20853
6.32192
6.42582
6.52084
6.6076
6.6867
6.75873
6.82427
6.88386
6.93801
6.98719
7.03187
7.07243
7.10927
7.14272
7.17312
7.20072
7.22581
7.24863
7.26938
7.28826
7.30545
7.32111
7.33537
7.34838
7.36025
7.37108
7.38098
7.39002
7.3983
7.40586
7.41279
7.41913
7.42495
7.43028
7.43517
7.43967
7.44379
7.44758
7.45106
7.45427
7.45722
7.45993
7.46242
7.46472
7.46683
7.46878
7.47058
7.47223
7.47375
7.47514
7.47643
7.47761
7.4787
7.47969
7.4806
7.48144
7.4822
7.48289
7.48352
7.48409
7.48461
7.48507
7.48548
7.48585
7.48617
7.48645
7.48668
7.48688
7.48705
7.48717
7.48727
7.48733
7.48736
0.708151
1.02854
1.34457
1.64616
1.93289
2.20659
2.47159
2.73125
2.98776
3.24208
3.49431
3.74381
3.9895
4.23002
4.46394
4.68984
4.90645
5.1127
5.30782
5.49123
5.66267
5.8221
5.96967
6.10572
6.2307
6.34516
6.44974
6.54508
6.63183
6.71066
6.78223
6.84713
6.90596
6.95926
7.00754
7.05126
7.09086
7.12673
7.15923
7.18869
7.21538
7.2396
7.26158
7.28153
7.29965
7.31612
7.33111
7.34474
7.35716
7.36846
7.37878
7.38818
7.39677
7.40461
7.41178
7.41834
7.42434
7.42984
7.43487
7.43949
7.44373
7.44761
7.45118
7.45446
7.45747
7.46024
7.46279
7.46514
7.4673
7.46928
7.47111
7.47279
7.47435
7.47577
7.47709
7.4783
7.47941
7.48043
7.48137
7.48223
7.48302
7.48374
7.4844
7.485
7.48554
7.48604
7.48648
7.48688
7.48724
7.48755
7.48783
7.48807
7.48827
7.48845
7.48859
7.4887
7.48878
7.48883
7.48885
1.05858
1.3906
1.73832
2.03556
2.30642
2.56023
2.80645
3.05003
3.29338
3.53713
3.78073
4.02294
4.2621
4.49636
4.72387
4.94293
5.15209
5.35019
5.5364
5.71028
5.87162
6.02053
6.15732
6.28246
6.39657
6.50032
6.59444
6.67967
6.75674
6.82635
6.88919
6.94588
6.99701
7.04313
7.08473
7.12227
7.15614
7.18673
7.21436
7.23933
7.26192
7.28237
7.30088
7.31766
7.33287
7.34668
7.35922
7.37063
7.381
7.39043
7.39903
7.40687
7.41402
7.42055
7.42651
7.43196
7.43695
7.44152
7.4457
7.44953
7.45305
7.45627
7.45923
7.46195
7.46446
7.46675
7.46887
7.47081
7.4726
7.47425
7.47577
7.47716
7.47845
7.47963
7.48073
7.48173
7.48265
7.4835
7.48428
7.48499
7.48565
7.48624
7.48679
7.48729
7.48774
7.48815
7.48852
7.48885
7.48915
7.48941
7.48964
7.48984
7.49001
7.49015
7.49027
7.49036
7.49042
7.49047
7.49048
1.59231
1.96885
2.31788
2.56329
2.78073
2.99029
3.20273
3.42116
3.64592
3.87577
4.1087
4.34225
4.57381
4.80077
5.02074
5.23165
5.4318
5.61997
5.79538
5.95763
6.10675
6.243
6.3669
6.47912
6.58043
6.67168
6.75368
6.82729
6.8933
6.95246
7.00545
7.05295
7.0955
7.13366
7.1679
7.19863
7.22623
7.25105
7.27339
7.29351
7.31165
7.32801
7.3428
7.35616
7.36825
7.37921
7.38914
7.39815
7.40634
7.41379
7.42056
7.42673
7.43235
7.43747
7.44215
7.44643
7.45034
7.45392
7.4572
7.4602
7.46295
7.46548
7.46779
7.46992
7.47187
7.47367
7.47533
7.47685
7.47825
7.47954
7.48072
7.48182
7.48282
7.48375
7.4846
7.48538
7.4861
7.48677
7.48738
7.48794
7.48845
7.48891
7.48934
7.48973
7.49009
7.49041
7.49069
7.49095
7.49119
7.49139
7.49157
7.49173
7.49186
7.49197
7.49206
7.49213
7.49218
7.49221
7.49223
2.64509
2.88275
3.09007
3.2015
3.32461
3.47079
3.64036
3.82952
4.03403
4.24957
4.47195
4.69707
4.9211
5.1405
5.35226
5.55387
5.7435
5.9199
6.08238
6.2308
6.36537
6.48667
6.59546
6.69266
6.77924
6.8562
6.9245
6.98507
7.03875
7.08635
7.12854
7.16599
7.19925
7.22882
7.25513
7.27859
7.29951
7.31822
7.33494
7.34995
7.36339
7.37548
7.38635
7.39615
7.40498
7.41296
7.42017
7.4267
7.43263
7.43799
7.44287
7.44731
7.45134
7.45502
7.45837
7.46143
7.46423
7.46678
7.46913
7.47126
7.47323
7.47503
7.47668
7.47819
7.47959
7.48087
7.48204
7.48313
7.48412
7.48504
7.48588
7.48666
7.48737
7.48803
7.48864
7.4892
7.48971
7.49018
7.49061
7.49101
7.49138
7.49171
7.49201
7.49229
7.49254
7.49277
7.49298
7.49316
7.49332
7.49347
7.4936
7.49371
7.4938
7.49388
7.49394
7.49399
7.49403
7.49405
7.49406
4.18612
4.15583
3.96184
3.87568
3.88811
3.96865
4.09709
4.2599
4.44731
4.65151
4.86584
5.0844
5.30198
5.51417
5.71727
5.9085
6.0859
6.24838
6.39552
6.52751
6.64495
6.74877
6.84008
6.92008
6.98995
7.05088
7.10394
7.15015
7.19038
7.22544
7.25603
7.28274
7.30612
7.32662
7.34462
7.36046
7.37444
7.38679
7.39773
7.40742
7.41607
7.42376
7.43063
7.43677
7.4423
7.44723
7.45168
7.45569
7.45929
7.46257
7.46552
7.4682
7.47063
7.47284
7.47485
7.47668
7.47834
7.47987
7.48125
7.48253
7.48369
7.48475
7.48573
7.48663
7.48745
7.4882
7.4889
7.48954
7.49012
7.49066
7.49116
7.49161
7.49203
7.49242
7.49278
7.49311
7.49341
7.49368
7.49394
7.49417
7.49439
7.49458
7.49476
7.49492
7.49507
7.49521
7.49533
7.49543
7.49553
7.49562
7.49569
7.49575
7.49581
7.49586
7.49589
7.49592
7.49594
7.49595
7.49596
6.66313
5.33338
4.74171
4.49345
4.42239
4.45492
4.55475
4.70074
4.87861
5.07744
5.28829
5.50351
5.71659
5.92218
6.11615
6.29553
6.45855
6.60443
6.73327
6.84578
6.94309
7.02663
7.09788
7.15838
7.20955
7.25273
7.28912
7.31975
7.34554
7.36726
7.38558
7.40105
7.41414
7.42524
7.43468
7.44271
7.44959
7.45548
7.46053
7.46491
7.46868
7.47196
7.4748
7.4773
7.47948
7.48139
7.48308
7.48457
7.48589
7.48705
7.4881
7.48903
7.48987
7.49062
7.49129
7.49189
7.49244
7.49293
7.49338
7.49379
7.49416
7.49449
7.4948
7.49508
7.49533
7.49557
7.49578
7.49597
7.49615
7.49631
7.49647
7.4966
7.49673
7.49685
7.49695
7.49705
7.49714
7.49722
7.4973
7.49737
7.49744
7.49749
7.49755
7.4976
7.49764
7.49768
7.49772
7.49775
7.49778
7.4978
7.49782
7.49784
7.49786
7.49787
7.49788
7.49789
7.49789
7.4979
7.4979
7.78234
5.97123
5.30356
5.0045
4.90038
4.9133
5.00343
5.14653
5.32556
5.52733
5.74083
5.95682
6.1676
6.36709
6.55091
6.71626
6.86185
6.98762
7.09442
7.18376
7.25747
7.31754
7.36596
7.40457
7.43504
7.45882
7.4772
7.4912
7.50172
7.50948
7.51505
7.51892
7.52147
7.52301
7.52376
7.52394
7.52368
7.52311
7.52233
7.52137
7.52035
7.51926
7.51815
7.51704
7.51593
7.51489
7.51385
7.51288
7.51195
7.51107
7.51025
7.50947
7.50875
7.50807
7.50743
7.50685
7.5063
7.50579
7.50531
7.50487
7.50446
7.50409
7.50374
7.50341
7.50311
7.50284
7.50258
7.50234
7.50212
7.50192
7.50172
7.50155
7.50139
7.50124
7.5011
7.50098
7.50086
7.50075
7.50065
7.50056
7.50048
7.5004
7.50033
7.50027
7.50021
7.50016
7.50011
7.50006
7.50002
7.49999
7.49996
7.49993
7.49991
7.49989
7.49987
7.49986
7.49985
7.49984
7.49984
7.33187
6.21195
5.67801
5.41171
5.31861
5.34052
5.44187
5.59827
5.79126
6.00578
6.22905
6.45024
6.66066
6.85378
7.02531
7.17314
7.29695
7.39785
7.47787
7.53952
7.58557
7.61866
7.64126
7.65554
7.66335
7.66622
7.6654
7.66191
7.65652
7.64987
7.64241
7.63451
7.62644
7.61839
7.6105
7.60289
7.59559
7.58867
7.58214
7.57602
7.57028
7.56495
7.56
7.5554
7.55114
7.5472
7.54356
7.54021
7.53712
7.53426
7.53164
7.52922
7.52699
7.52494
7.52306
7.52131
7.51971
7.51824
7.51688
7.51562
7.51447
7.51341
7.51243
7.51152
7.51069
7.50992
7.50921
7.50855
7.50794
7.50738
7.50687
7.50639
7.50595
7.50555
7.50517
7.50483
7.50451
7.50422
7.50395
7.50371
7.50348
7.50327
7.50309
7.50291
7.50276
7.50262
7.50249
7.50237
7.50227
7.50218
7.5021
7.50203
7.50197
7.50192
7.50188
7.50184
7.50182
7.5018
7.50179
7.08394
6.344
5.94199
5.73831
5.68595
5.74222
5.87592
6.06317
6.28435
6.52258
6.76316
6.99376
7.20474
7.3896
7.54483
7.66964
7.76545
7.83512
7.88229
7.91087
7.92459
7.92684
7.92053
7.90807
7.89137
7.87196
7.85099
7.82935
7.80765
7.78635
7.76578
7.74612
7.72751
7.71002
7.69367
7.67844
7.66432
7.65126
7.63919
7.62808
7.61785
7.60844
7.59981
7.59188
7.58461
7.57794
7.57182
7.5662
7.56106
7.55633
7.552
7.54802
7.54438
7.54103
7.53794
7.53512
7.53252
7.53013
7.52793
7.52591
7.52404
7.52233
7.52075
7.51929
7.51795
7.51671
7.51557
7.51452
7.51355
7.51265
7.51182
7.51106
7.51035
7.5097
7.5091
7.50855
7.50804
7.50757
7.50714
7.50674
7.50638
7.50605
7.50574
7.50547
7.50521
7.50498
7.50478
7.50459
7.50442
7.50428
7.50415
7.50403
7.50394
7.50386
7.50379
7.50374
7.5037
7.50367
7.50366
7.06981
6.431
6.12784
6.00189
6.01468
6.12945
6.31735
6.55442
6.8195
7.09331
7.35883
7.60198
7.81255
7.98462
8.11651
8.20994
8.26899
8.29905
8.3059
8.29501
8.2712
8.23852
8.20018
8.15867
8.11586
8.07308
8.03128
7.9911
7.95294
7.91702
7.88345
7.85224
7.82336
7.79671
7.77218
7.74966
7.729
7.71008
7.69277
7.67693
7.66245
7.64923
7.63713
7.62608
7.61597
7.60673
7.5983
7.59057
7.5835
7.57703
7.5711
7.56567
7.56069
7.55613
7.55194
7.5481
7.54456
7.54132
7.53834
7.5356
7.53307
7.53075
7.52861
7.52664
7.52482
7.52314
7.5216
7.52018
7.51886
7.51765
7.51653
7.5155
7.51454
7.51366
7.51285
7.5121
7.51141
7.51078
7.5102
7.50966
7.50917
7.50872
7.50831
7.50793
7.50759
7.50728
7.507
7.50675
7.50652
7.50632
7.50614
7.50599
7.50586
7.50575
7.50566
7.50559
7.50554
7.50551
7.50549
6.97894
6.43511
6.24109
6.21587
6.31944
6.51785
6.78355
7.09168
7.41836
7.7408
8.03854
8.29543
8.50116
8.65174
8.7489
8.79853
8.8088
8.7885
8.74595
8.68829
8.62136
8.54959
8.47628
8.40373
8.33352
8.26663
8.20366
8.14488
8.09039
8.0401
7.99389
7.95153
7.91278
7.8774
7.84513
7.81571
7.78892
7.76452
7.7423
7.72207
7.70364
7.68685
7.67156
7.65762
7.64491
7.63331
7.62272
7.61305
7.60421
7.59614
7.58874
7.58198
7.57578
7.5701
7.56489
7.56011
7.55573
7.5517
7.548
7.54459
7.54146
7.53857
7.53592
7.53347
7.53122
7.52914
7.52722
7.52546
7.52382
7.52232
7.52093
7.51965
7.51847
7.51738
7.51637
7.51544
7.51459
7.5138
7.51308
7.51241
7.51181
7.51125
7.51074
7.51027
7.50985
7.50946
7.50912
7.5088
7.50853
7.50828
7.50806
7.50788
7.50771
7.50758
7.50747
7.50738
7.50732
7.50728
7.50726
6.68857
6.34271
6.29283
6.39686
6.61844
6.92775
7.29819
7.70253
8.11199
8.49775
8.83411
9.10236
9.29316
9.40687
9.45151
9.43959
9.38504
9.30093
9.19836
9.086
8.97021
8.85543
8.74458
8.63944
8.54102
8.44973
8.36565
8.28857
8.21818
8.15406
8.09577
8.04283
7.9948
7.95125
7.91176
7.87596
7.84349
7.81404
7.78733
7.76307
7.74104
7.72102
7.70281
7.68624
7.67116
7.65742
7.64489
7.63346
7.62303
7.61349
7.60477
7.5968
7.5895
7.58281
7.57669
7.57106
7.5659
7.56116
7.55681
7.5528
7.54912
7.54573
7.54261
7.53973
7.53708
7.53464
7.53239
7.53031
7.52839
7.52662
7.52498
7.52348
7.52208
7.5208
7.51962
7.51852
7.51752
7.51659
7.51574
7.51495
7.51424
7.51358
7.51297
7.51242
7.51192
7.51147
7.51106
7.51069
7.51036
7.51007
7.50981
7.50959
7.5094
7.50924
7.50911
7.50901
7.50893
7.50889
7.50887
6.23528
6.1797
6.30585
6.5656
6.9331
7.38435
7.89264
8.42555
8.94511
9.41172
9.79121
10.0618
10.2181
10.2692
10.2342
10.1359
9.99577
9.83177
9.6574
9.48211
9.31203
9.15086
9.00057
8.86196
8.73512
8.61967
8.51497
8.42026
8.33473
8.25756
8.18796
8.1252
8.06861
8.01755
7.97148
7.92987
7.89226
7.85826
7.8275
7.79962
7.77436
7.75145
7.73064
7.71173
7.69454
7.67889
7.66464
7.65164
7.63979
7.62897
7.61907
7.61003
7.60175
7.59417
7.58722
7.58085
7.57501
7.56963
7.5647
7.56017
7.55599
7.55215
7.54862
7.54536
7.54235
7.53959
7.53703
7.53468
7.5325
7.5305
7.52864
7.52694
7.52536
7.5239
7.52256
7.52132
7.52018
7.51913
7.51816
7.51727
7.51645
7.51571
7.51502
7.5144
7.51383
7.51332
7.51285
7.51243
7.51206
7.51173
7.51144
7.51118
7.51097
7.51079
7.51064
7.51052
7.51044
7.51038
7.51036
5.74803
5.99086
6.30679
6.74306
7.28613
7.91767
8.60868
9.31608
9.98444
10.5544
10.9774
11.2292
11.3145
11.2609
11.106
10.8876
10.6361
10.3738
10.1153
9.86925
9.64032
9.43037
9.23967
9.06754
8.91278
8.77397
8.64964
8.53835
8.43872
8.34951
8.26958
8.19791
8.13359
8.07581
8.02385
7.97708
7.93493
7.89691
7.86256
7.83152
7.80343
7.77798
7.7549
7.73395
7.71492
7.69761
7.68186
7.6675
7.65441
7.64247
7.63155
7.62158
7.61245
7.60409
7.59644
7.58941
7.58297
7.57705
7.57162
7.56662
7.56202
7.55779
7.55389
7.5503
7.54699
7.54394
7.54113
7.53853
7.53613
7.53392
7.53188
7.52999
7.52825
7.52664
7.52516
7.5238
7.52254
7.52138
7.52031
7.51932
7.51842
7.5176
7.51684
7.51615
7.51553
7.51496
7.51444
7.51398
7.51357
7.5132
7.51288
7.5126
7.51236
7.51216
7.512
7.51187
7.51178
7.51172
7.51169
5.30555
5.80899
6.31433
6.94446
7.69831
8.56269
9.50316
10.4571
11.3353
12.0402
12.4975
12.6846
12.6328
12.4059
12.0727
11.6899
11.2965
10.9164
10.5621
10.2389
9.94803
9.6883
9.45742
9.25267
9.07127
8.91053
8.76802
8.64155
8.52916
8.42914
8.34001
8.26046
8.18935
8.12569
8.06861
8.01736
7.97128
7.9298
7.8924
7.85863
7.82813
7.80051
7.7755
7.75282
7.73222
7.7135
7.69647
7.68097
7.66683
7.65394
7.64215
7.63139
7.62155
7.61253
7.60428
7.5967
7.58976
7.58338
7.57752
7.57213
7.56717
7.56261
7.5584
7.55453
7.55096
7.54767
7.54463
7.54183
7.53924
7.53686
7.53465
7.53262
7.53074
7.52901
7.5274
7.52593
7.52457
7.52331
7.52216
7.5211
7.52013
7.51924
7.51842
7.51767
7.517
7.51638
7.51582
7.51533
7.51488
7.51448
7.51414
7.51383
7.51358
7.51336
7.51318
7.51304
7.51294
7.51288
7.51285
4.95473
5.64667
6.33117
7.17295
8.18358
9.35785
10.6553
11.9801
13.1762
14.0647
14.5232
14.5474
14.2367
13.7266
13.1326
12.5306
11.9622
11.4456
10.986
10.5817
10.228
9.9192
9.64976
9.41436
9.20835
9.02769
8.86888
8.72895
8.60536
8.49595
8.39889
8.31258
8.23568
8.16704
8.10564
8.05064
8.00127
7.95689
7.91695
7.88093
7.84841
7.81902
7.79241
7.7683
7.74641
7.72654
7.70846
7.69201
7.67702
7.66335
7.65086
7.63945
7.62902
7.61947
7.61072
7.6027
7.59534
7.58858
7.58237
7.57666
7.57141
7.56657
7.56212
7.55802
7.55424
7.55075
7.54753
7.54456
7.54182
7.53929
7.53695
7.53479
7.5328
7.53096
7.52926
7.5277
7.52626
7.52493
7.5237
7.52258
7.52154
7.5206
7.51973
7.51894
7.51822
7.51757
7.51698
7.51645
7.51597
7.51555
7.51519
7.51486
7.51459
7.51436
7.51417
7.51402
7.51392
7.51385
7.51381
4.68916
5.48302
6.33613
7.41148
8.73903
10.3374
12.174
14.1058
15.8373
16.9958
17.3567
16.9999
16.2025
15.2356
14.2702
13.3868
12.6114
11.9438
11.3738
10.8878
10.4731
10.1182
9.81323
9.55019
9.32238
9.12431
8.95144
8.80004
8.66701
8.54974
8.44609
8.35421
8.27257
8.19987
8.13497
8.07693
8.02493
7.97824
7.93625
7.89845
7.86434
7.83353
7.80566
7.78042
7.75752
7.73674
7.71784
7.70065
7.68498
7.6707
7.65766
7.64574
7.63485
7.62488
7.61575
7.60738
7.5997
7.59264
7.58616
7.5802
7.57472
7.56968
7.56503
7.56075
7.5568
7.55316
7.5498
7.5467
7.54383
7.54119
7.53875
7.5365
7.53442
7.5325
7.53073
7.52909
7.52758
7.52619
7.52492
7.52374
7.52266
7.52167
7.52076
7.51994
7.51919
7.5185
7.51789
7.51733
7.51684
7.5164
7.51601
7.51568
7.51539
7.51515
7.51495
7.5148
7.51469
7.51461
7.51458
4.34512
5.25411
6.28261
7.61344
9.32352
11.5023
14.1884
17.2176
20.0015
21.6156
21.5737
20.3153
18.5998
16.9148
15.445
14.2201
13.2144
12.3899
11.7107
11.1475
10.6769
10.2808
9.94488
9.65822
9.41208
9.19958
9.01522
8.85455
8.71395
8.59046
8.48162
8.3854
8.3001
8.22427
8.1567
8.09635
8.04234
7.99391
7.9504
7.91125
7.87595
7.8441
7.8153
7.78922
7.76558
7.74413
7.72463
7.70689
7.69074
7.67601
7.66256
7.65029
7.63906
7.62879
7.61938
7.61075
7.60284
7.59557
7.58889
7.58275
7.57711
7.57191
7.56712
7.56271
7.55864
7.55489
7.55143
7.54823
7.54529
7.54256
7.54005
7.53773
7.53558
7.5336
7.53178
7.53009
7.52854
7.52711
7.52579
7.52458
7.52346
7.52244
7.52151
7.52066
7.51988
7.51918
7.51854
7.51797
7.51746
7.51701
7.51661
7.51626
7.51597
7.51572
7.51552
7.51536
7.51524
7.51516
7.51513
3.82684
4.92268
6.12732
7.7075
9.83424
12.7547
16.7732
21.9818
27.3273
29.9243
28.3618
24.8425
21.4162
18.6697
16.5706
14.9686
13.73
12.7567
11.9793
11.3491
10.8316
10.4018
10.0411
9.73597
9.47571
9.25229
9.05934
8.89184
8.74574
8.61777
8.50525
8.40598
8.31812
8.24013
8.17073
8.10882
8.05346
8.00387
7.95936
7.91932
7.88325
7.85071
7.8213
7.79469
7.77058
7.7487
7.72882
7.71074
7.69427
7.67927
7.66557
7.65306
7.64163
7.63117
7.62158
7.6128
7.60474
7.59734
7.59055
7.5843
7.57855
7.57326
7.56839
7.56389
7.55975
7.55594
7.55241
7.54916
7.54616
7.54339
7.54083
7.53847
7.53628
7.53427
7.53241
7.53069
7.52911
7.52765
7.52631
7.52508
7.52394
7.52291
7.52196
7.52109
7.5203
7.51958
7.51894
7.51835
7.51783
7.51737
7.51697
7.51661
7.51631
7.51606
7.51585
7.51569
7.51557
7.51549
7.51545
3.40276
4.55088
5.87359
7.63587
10.1224
13.8241
19.6822
29.3194
42.9829
48.9805
40.2048
30.677
24.3446
20.2529
17.4921
15.5394
14.1021
13.0094
12.157
11.4777
10.9269
10.4739
10.0967
9.77945
9.51025
9.28007
9.08195
8.91043
8.76117
8.63068
8.51615
8.41525
8.32605
8.24697
8.17666
8.11398
8.05798
8.00785
7.96287
7.92244
7.88604
7.8532
7.82354
7.7967
7.77239
7.75034