/*--------------------------------*- C++ -*----------------------------------*\
  =========                 |
  \\      /  F ield         | OpenFOAM: The Open Source CFD Toolbox
   \\    /   O peration     | Website:  https://openfoam.org
    \\  /    A nd           | Version:  7
     \\/     M anipulation  |
\*---------------------------------------------------------------------------*/
FoamFile
{
    version     2.0;
    format      ascii;
    class       volScalarField;
    location    "1123200.0";
    object      percentClay;
}
// * * * * * * * * * * * * * * * * * * * * * * * * * * * * * * * * * * * * * //

dimensions      [0 0 0 0 0 0 0];

internalField   nonuniform List<scalar> 
5346
(
0.124306
0.0922907
0.0666863
0.0463879
0.030703
0.0191172
0.0110585
0.00585542
0.00278459
0.00115729
0.000401094
0.000104119
1.2538e-05
-5.10693e-06
-3.99917e-06
-1.39909e-06
-2.43822e-07
2.22735e-08
2.8039e-08
8.02728e-09
6.08023e-10
-3.38498e-10
-1.27333e-10
-1.27576e-11
3.6471e-12
1.37536e-12
1.03366e-13
-3.86996e-14
-1.03851e-14
-1.78609e-16
3.27572e-16
4.85487e-17
-3.91299e-18
-1.81063e-18
-8.64043e-20
3.69981e-20
5.4428e-21
-3.6731e-22
-1.45981e-22
-3.50036e-24
2.58239e-24
2.36082e-25
-3.08534e-26
-5.80031e-27
1.78188e-28
9.94063e-29
2.25003e-30
-1.32145e-30
-8.91603e-32
1.3874e-32
1.6947e-33
-1.09046e-34
-2.41483e-35
4.56801e-37
2.84449e-37
3.49249e-39
-2.8914e-39
-1.12313e-40
2.57488e-41
1.68193e-42
-2.01737e-43
-1.91882e-44
1.38959e-45
1.87521e-46
-8.27334e-48
-1.61985e-48
4.09182e-50
1.27253e-50
-1.45555e-52
-9.16491e-53
9.94178e-56
6.04124e-55
4.04056e-57
-3.68795e-57
-4.67249e-59
2.08029e-59
3.3578e-61
-1.08448e-61
-1.95845e-63
5.24769e-64
9.38594e-66
-2.33291e-66
-3.83332e-68
9.26555e-69
1.27384e-70
-3.26359e-71
-2.96351e-73
9.8746e-74
4.11872e-76
-2.51881e-76
3.83051e-79
5.25037e-79
-4.06587e-81
-7.99813e-82
1.03231e-83
7.68091e-85
-1.28135e-86
-3.20617e-88
4.94955e-90
0.124999
0.0933449
0.0675029
0.0468081
0.0308475
0.0191513
0.0110846
0.00590296
0.00284276
0.0012077
0.000434387
0.000121204
1.91471e-05
-3.43616e-06
-3.93396e-06
-1.57672e-06
-3.39007e-07
-1.73448e-09
2.74156e-08
9.93323e-09
1.31439e-09
-2.59802e-10
-1.53632e-10
-2.47225e-11
2.30532e-12
1.73013e-12
2.43464e-13
-2.9027e-14
-1.48091e-14
-1.27638e-15
3.32805e-16
8.80007e-17
9.07404e-19
-2.46625e-18
-2.98368e-19
3.337e-20
1.05706e-20
1.76554e-22
-2.18994e-22
-2.11033e-23
2.81262e-24
5.99997e-25
-1.17496e-26
-1.11749e-26
-4.55846e-28
1.535e-28
1.495e-29
-1.52256e-30
-2.81893e-31
8.35147e-33
4.03928e-33
5.24608e-35
-4.72447e-35
-2.26434e-36
4.62625e-37
3.93349e-38
-3.74926e-39
-5.06912e-40
2.39567e-41
5.45881e-42
-9.65985e-44
-5.14414e-44
-2.06719e-46
4.31372e-46
9.33485e-48
-3.26056e-48
-1.21962e-49
2.23861e-50
1.16431e-51
-1.4149e-52
-9.44136e-54
8.2202e-55
6.61702e-56
-4.42168e-57
-4.13913e-58
2.22326e-59
2.35167e-60
-1.03823e-61
-1.19453e-62
4.54393e-64
5.48386e-65
-1.86675e-66
-2.22013e-67
7.21021e-69
7.93135e-70
-2.5615e-71
-2.48935e-72
8.04339e-74
6.359e-75
-2.18804e-76
-1.2898e-77
4.94988e-79
1.99603e-80
-8.62157e-82
-1.94326e-83
1.01901e-84
9.20467e-87
-5.46164e-88
-2.95359e-91
0.125279
0.0938067
0.0680146
0.0471643
0.0309929
0.0191558
0.011043
0.0058735
0.00283923
0.00122003
0.00044929
0.000131635
2.42727e-05
-1.70247e-06
-3.63948e-06
-1.64691e-06
-4.10494e-07
-2.6908e-08
2.40725e-08
1.09913e-08
1.97467e-09
-1.29332e-10
-1.62847e-10
-3.59834e-11
5.61304e-14
1.85836e-12
3.9031e-13
-6.67391e-15
-1.7526e-14
-2.68601e-15
2.23977e-16
1.25088e-16
9.63563e-18
-2.606e-18
-5.83553e-19
6.85584e-21
1.57231e-20
1.34479e-21
-2.42509e-22
-5.0155e-23
1.08197e-24
1.08202e-24
5.57562e-26
-1.59703e-26
-1.97003e-27
1.49356e-28
3.98213e-29
-1.87533e-31
-5.96103e-31
-2.54704e-32
6.98374e-33
6.27663e-34
-6.31738e-35
-1.00331e-35
3.85932e-37
1.26585e-37
-2.14311e-40
-1.35051e-39
-3.58757e-41
1.24384e-41
6.5677e-43
-9.96968e-44
-8.07559e-45
6.94686e-46
8.11501e-47
-4.1565e-48
-7.01033e-49
2.0546e-50
5.37846e-51
-7.4512e-53
-3.71965e-53
9.11371e-56
2.35358e-55
1.43638e-57
-1.35511e-57
-1.64261e-59
7.11256e-60
1.16954e-61
-3.45515e-62
-6.32954e-64
1.51603e-64
2.85792e-66
-5.99146e-67
-1.00548e-68
2.14407e-69
2.75235e-71
-6.72568e-72
-5.48293e-74
1.77686e-74
5.21811e-77
-3.85369e-77
9.93121e-80
6.45275e-80
-5.52652e-82
-7.52941e-83
1.04785e-84
4.90749e-86
-8.13201e-88
-8.71834e-90
0.125211
0.0935131
0.0677428
0.0469565
0.0308066
0.0189727
0.0108822
0.00575881
0.00277578
0.00119521
0.000445007
0.000134223
2.71286e-05
-2.31361e-07
-3.18886e-06
-1.60263e-06
-4.44755e-07
-4.7702e-08
1.88922e-08
1.09816e-08
2.42819e-09
1.95198e-11
-1.52207e-10
-4.3389e-11
-2.51652e-12
1.69636e-12
4.98073e-13
2.3304e-14
-1.71576e-14
-3.97064e-15
3.67578e-18
1.43018e-16
2.02396e-17
-1.8655e-18
-8.40604e-19
-4.4712e-20
1.77701e-20
2.95959e-21
-1.46535e-22
-8.14166e-23
-3.71915e-24
1.40607e-24
1.80905e-25
-1.39241e-26
-4.25008e-27
-2.82525e-29
6.96337e-29
4.44674e-30
-8.35276e-31
-1.08969e-31
6.62346e-33
1.80596e-33
-8.7903e-36
-2.34565e-35
-8.12321e-37
2.48683e-37
1.80511e-38
-2.15276e-39
-2.59803e-40
1.45352e-41
2.99669e-42
-6.15765e-44
-2.9463e-44
-1.29303e-46
2.52217e-46
6.18193e-48
-1.92801e-48
-8.18874e-50
1.32728e-50
7.89507e-52
-8.23058e-53
-6.33195e-54
4.62307e-55
4.40957e-56
-2.38769e-57
-2.71336e-58
1.13676e-59
1.48785e-60
-5.02128e-62
-7.34679e-63
2.0904e-64
3.20689e-65
-8.26753e-67
-1.23945e-67
3.07463e-69
4.15949e-70
-1.06039e-71
-1.18606e-72
3.264e-74
2.76562e-75
-8.54328e-77
-4.98974e-78
1.77159e-79
6.56263e-81
-2.57064e-82
-5.42122e-84
2.21999e-85
1.67527e-87
-5.10376e-89
0.124743
0.0924629
0.0665957
0.0459799
0.0300696
0.0184481
0.0105251
0.00553252
0.00264832
0.00113464
0.000422588
0.000129039
2.74312e-05
7.53514e-07
-2.67218e-06
-1.45958e-06
-4.37031e-07
-5.98105e-08
1.32047e-08
9.9786e-09
2.57211e-09
1.45644e-10
-1.25851e-10
-4.49831e-11
-4.62303e-12
1.30283e-12
5.32275e-13
5.09322e-14
-1.37251e-14
-4.66032e-15
-2.56508e-16
1.32291e-16
2.87534e-17
-3.64353e-19
-9.48131e-19
-1.05523e-19
1.44995e-20
4.38645e-21
7.91538e-23
-9.83649e-23
-1.07335e-23
1.23931e-24
3.25281e-25
6.14291e-29
-6.23607e-27
-4.29978e-28
8.1973e-29
1.23615e-29
-6.06621e-31
-2.27258e-31
-2.94821e-33
3.14145e-33
1.91664e-34
-3.34283e-35
-3.9203e-36
2.5593e-37
5.71419e-38
-8.63981e-40
-6.73456e-40
-1.30198e-41
6.61953e-42
3.28021e-43
-5.5381e-44
-4.53661e-45
3.90863e-46
4.88123e-47
-2.23594e-48
-4.43231e-49
9.17303e-51
3.5151e-51
-9.73691e-54
-2.49029e-53
-2.787e-55
1.57843e-55
3.50268e-57
-9.07826e-58
-2.80918e-59
4.70252e-60
1.77179e-61
-2.21921e-62
-9.32625e-64
9.5095e-65
4.23477e-66
-3.69643e-67
-1.58305e-68
1.29681e-69
5.13586e-71
-3.92724e-72
-1.31845e-73
1.01385e-74
2.73057e-76
-2.10707e-77
-3.72014e-79
3.40915e-80
3.00679e-82
-3.63644e-83
-4.08594e-86
1.7867e-86
-5.40607e-89
0.1238
0.0905717
0.0645216
0.0441657
0.0286872
0.0174921
0.00991269
0.00516831
0.00245044
0.00103953
0.000384115
0.000117131
2.54085e-05
1.19332e-06
-2.16263e-06
-1.24796e-06
-3.92186e-07
-6.16508e-08
8.2393e-09
8.29221e-09
2.3979e-09
2.18317e-10
-9.23914e-11
-4.08086e-11
-5.66031e-12
8.23257e-13
4.87467e-13
6.67976e-14
-8.67475e-15
-4.53349e-15
-4.54823e-16
9.80767e-17
3.17516e-17
1.27595e-18
-8.55397e-19
-1.49299e-19
6.92164e-21
4.93414e-21
3.4704e-22
-8.90238e-23
-1.68631e-23
5.14332e-25
4.14026e-25
2.28667e-26
-6.55821e-27
-9.20255e-28
5.7122e-29
2.01332e-29
2.9469e-31
-3.1222e-31
-2.24563e-32
3.52045e-33
5.12126e-34
-2.43653e-35
-8.1114e-36
-4.46727e-38
1.00793e-37
4.64444e-39
-1.00625e-39
-8.98614e-41
7.88763e-42
1.20722e-42
-4.26334e-44
-1.31586e-44
3.54824e-47
1.21828e-46
2.75102e-48
-9.75515e-49
-4.40427e-50
6.77351e-51
4.63366e-52
-4.107e-53
-3.94664e-54
2.16402e-55
2.84965e-56
-9.71838e-58
-1.80318e-58
3.58733e-60
1.00845e-60
-9.93585e-63
-4.93178e-63
1.55113e-65
2.12716e-65
1.81484e-68
-8.13864e-68
-1.99013e-70
2.68919e-70
5.60192e-73
-7.61804e-73
-2.87818e-76
1.74008e-75
-4.58238e-78
-3.18472e-78
2.00364e-80
4.12547e-81
-3.77022e-83
-3.04922e-84
3.05297e-86
7.62551e-88
0.122299
0.0876959
0.0614243
0.0414682
0.0266313
0.0160791
0.0090247
0.00465613
0.00218107
0.000912736
0.000332533
0.000100186
2.16725e-05
1.18551e-06
-1.69799e-06
-1.00188e-06
-3.2222e-07
-5.46847e-08
4.66733e-09
6.32525e-09
1.98626e-09
2.29645e-10
-6.0558e-11
-3.26809e-11
-5.48897e-12
4.06274e-13
3.87155e-13
6.71862e-14
-3.92168e-15
-3.72949e-15
-5.23697e-16
5.62428e-17
2.85682e-17
2.35317e-18
-6.19597e-19
-1.57853e-19
-1.23419e-21
4.39052e-21
5.27529e-22
-5.87083e-23
-1.90475e-23
-4.14789e-25
3.972e-25
4.3129e-26
-4.82173e-27
-1.24013e-27
1.74924e-30
2.31052e-29
1.51156e-30
-3.00479e-31
-4.32909e-32
2.26954e-33
7.88157e-34
8.15085e-36
-1.08262e-35
-6.34511e-37
1.14158e-37
1.31456e-38
-8.56229e-40
-1.90257e-40
2.58211e-42
2.20289e-42
4.86244e-44
-2.11035e-44
-1.13483e-45
1.68324e-46
1.51615e-47
-1.09631e-48
-1.57047e-49
5.36452e-51
1.36879e-51
-1.24502e-53
-1.01962e-53
-9.69578e-56
6.67985e-56
1.64568e-57
-3.84691e-58
-1.46169e-59
1.96942e-60
9.84989e-62
-8.93326e-63
-5.42033e-64
3.62102e-65
2.49818e-66
-1.30289e-67
-9.81653e-69
4.11394e-70
3.24293e-71
-1.13983e-72
-8.57049e-74
2.70313e-75
1.78156e-76
-5.25533e-78
-2.68328e-79
7.62469e-81
2.52471e-82
-6.72566e-84
-9.61867e-86
2.18603e-87
0.119823
0.0833387
0.0570633
0.0378315
0.0239183
0.0142374
0.00788299
0.00401049
0.00185007
0.000761036
0.000272033
8.03129e-05
1.70272e-05
9.17583e-07
-1.28613e-06
-7.51842e-07
-2.4198e-07
-4.24658e-08
2.50717e-09
4.42949e-09
1.46552e-09
1.94013e-10
-3.57218e-11
-2.31711e-11
-4.43018e-12
1.33123e-13
2.68021e-13
5.52183e-14
-7.44572e-16
-2.61818e-15
-4.64745e-16
2.22357e-17
2.13682e-17
2.55244e-18
-3.55385e-19
-1.32704e-19
-6.37862e-21
3.14029e-21
5.48222e-22
-2.40851e-23
-1.66924e-23
-1.06374e-24
2.94571e-25
5.05548e-26
-2.09926e-27
-1.22813e-27
-5.27228e-29
1.9837e-29
2.37094e-30
-1.95268e-31
-5.33097e-32
-2.24687e-35
8.51643e-34
4.79784e-35
-1.00913e-35
-1.2017e-36
8.08453e-38
1.98103e-38
-1.5504e-40
-2.52401e-40
-8.44136e-42
2.59541e-42
1.90401e-43
-2.11634e-44
-2.68625e-45
1.25296e-46
2.96834e-47
-3.02555e-49
-2.73198e-49
-4.4884e-51
2.1435e-51
8.55288e-53
-1.44593e-53
-9.10423e-55
8.33744e-56
7.5816e-57
-4.04873e-58
-5.18846e-59
1.6081e-60
3.03357e-61
-4.83468e-63
-1.54566e-63
8.1147e-66
6.77132e-66
1.54096e-68
-2.53042e-68
-1.85573e-70
8.10041e-71
8.25353e-73
-2.15771e-73
-2.22493e-75
4.61746e-76
3.8858e-78
-7.69478e-79
-3.72652e-81
8.46973e-82
9.58933e-85
-4.90372e-85
1.01327e-87
0.115908
0.0770418
0.0512526
0.0332553
0.0206198
0.0120462
0.00654868
0.00327079
0.00147994
0.00059613
0.00020817
5.98523e-05
1.22798e-05
5.8065e-07
-9.23888e-07
-5.22183e-07
-1.65134e-07
-2.90177e-08
1.36416e-09
2.83266e-09
9.60158e-10
1.36936e-10
-1.91297e-11
-1.45064e-11
-3.02596e-12
3.19546e-15
1.61649e-13
3.78881e-14
6.65332e-16
-1.57108e-15
-3.33769e-16
2.86554e-18
1.33786e-17
2.05851e-18
-1.54244e-19
-9.08276e-20
-7.42421e-21
1.8074e-21
4.35211e-22
-1.81648e-25
-1.16025e-23
-1.19638e-24
1.66377e-25
4.36039e-26
1.23429e-28
-9.34302e-28
-7.7901e-29
1.27301e-29
2.43413e-30
-6.57636e-32
-4.78416e-32
-1.92754e-33
6.7693e-34
7.05759e-35
-6.52795e-36
-1.4021e-36
2.20246e-38
2.05268e-38
6.69149e-40
-2.35439e-40
-1.84979e-41
2.06987e-42
2.95354e-43
-1.21197e-44
-3.63133e-45
1.93857e-48
3.6476e-47
1.10357e-48
-3.05631e-49
-1.83288e-50
2.1254e-51
2.02746e-52
-1.19838e-53
-1.80131e-54
4.90893e-56
1.33281e-56
-8.21357e-59
-8.52033e-59
-8.32085e-61
4.69237e-61
1.0666e-62
-2.25641e-63
-7.57805e-65
9.42488e-66
3.94025e-67
-3.39909e-68
-1.6295e-69
1.03259e-70
5.36862e-72
-2.6844e-73
-1.41582e-74
5.6644e-76
2.74983e-77
-9.27489e-79
-3.73852e-80
1.06913e-81
3.00213e-83
-6.60725e-85
-8.14868e-87
0.110123
0.0687549
0.0440617
0.0278672
0.0168789
0.00963233
0.00511562
0.00249618
0.00110291
0.000433279
0.000147249
4.1049e-05
8.08804e-06
3.06532e-07
-6.13132e-07
-3.30536e-07
-1.01361e-07
-1.74164e-08
7.74103e-10
1.63338e-09
5.53586e-10
8.16326e-11
-9.33166e-12
-7.94389e-12
-1.75088e-12
-3.25222e-14
8.42585e-14
2.17706e-14
8.75176e-16
-8.00594e-16
-1.96638e-16
-3.94349e-18
6.98602e-18
1.30729e-18
-4.34694e-20
-5.08459e-20
-5.70667e-21
8.24351e-22
2.73248e-22
8.97703e-24
-6.45613e-24
-9.27189e-25
6.82436e-26
2.90615e-26
1.08805e-27
-5.5448e-28
-6.98458e-29
5.92325e-30
1.84595e-30
2.02257e-32
-3.27584e-32
-2.53552e-33
4.03257e-34
6.65801e-35
-2.58185e-36
-1.1736e-36
-2.40281e-38
1.56728e-38
1.09635e-39
-1.58847e-40
-2.13106e-41
1.06577e-42
2.99489e-43
-6.30205e-46
-3.36531e-45
-1.13628e-46
3.10486e-47
2.14447e-48
-2.32035e-49
-2.66186e-50
1.32079e-51
2.62308e-52
-4.23191e-54
-2.15283e-54
-1.58601e-56
1.50722e-56
4.00564e-58
-9.01963e-59
-3.98315e-60
4.64479e-61
2.87176e-62
-2.04871e-63
-1.65921e-64
7.68373e-66
7.98949e-67
-2.40648e-68
-3.15175e-69
6.2374e-71
1.00674e-71
-1.34421e-73
-2.60896e-74
2.43093e-76
5.20412e-77
-3.67941e-79
-7.34046e-80
4.64253e-82
6.14699e-83
-3.48205e-85
-1.58899e-86
0.0995733
0.05818
0.035799
0.0219726
0.0129294
0.00717163
0.00370342
0.00175749
0.000755123
0.000288279
9.50502e-05
2.56217e-05
4.83838e-06
1.4233e-07
-3.64047e-07
-1.86734e-07
-5.51177e-08
-9.11928e-09
4.29993e-10
8.30802e-10
2.76377e-10
4.09495e-11
-4.09077e-12
-3.73457e-12
-8.48725e-13
-2.72625e-14
3.72494e-14
1.0361e-14
5.95847e-16
-3.40028e-16
-9.44795e-17
-4.0359e-18
2.99091e-18
6.61134e-19
-1.3872e-21
-2.30291e-20
-3.27183e-21
2.83999e-22
1.36274e-22
8.41291e-24
-2.84444e-24
-5.40875e-25
1.67897e-26
1.51524e-26
1.04091e-27
-2.55356e-28
-4.51337e-29
1.74157e-30
1.06965e-30
4.56314e-32
-1.72261e-32
-2.02444e-33
1.74157e-34
4.56343e-35
-1.43317e-37
-7.38512e-37
-3.84318e-38
8.96071e-39
1.00316e-39
-7.58345e-41
-1.69233e-41
2.3019e-43
2.20717e-43
6.15771e-45
-2.30808e-45
-1.53279e-46
1.92574e-47
2.22847e-48
-1.19468e-49
-2.47882e-50
3.75204e-52
2.27955e-52
2.76822e-54
-1.76816e-54
-6.26684e-56
1.17208e-56
6.79585e-58
-6.57765e-59
-5.51283e-60
3.04843e-61
3.59368e-62
-1.12875e-63
-1.9628e-64
3.05878e-66
8.94505e-67
-4.23556e-69
-3.48147e-69
-1.00284e-71
1.1312e-71
8.62117e-74
-2.94625e-74
-2.84171e-76
5.89107e-77
5.38648e-79
-8.64098e-80
-6.66371e-82
7.30189e-83
2.7915e-85
-2.04857e-86
0.0811535
0.0453019
0.0267568
0.0158974
0.00905239
0.00486029
0.00242993
0.00111651
0.000464511
0.000171743
5.49024e-05
1.43775e-05
2.63289e-06
7.51181e-08
-1.84938e-07
-9.14538e-08
-2.59821e-08
-4.11797e-09
2.0623e-10
3.6012e-10
1.16236e-10
1.69869e-11
-1.54048e-12
-1.4564e-12
-3.35422e-13
-1.41518e-14
1.34292e-14
3.9635e-15
2.85643e-16
-1.15265e-16
-3.60007e-17
-2.26537e-18
1.00576e-18
2.61507e-19
6.52387e-21
-8.14203e-21
-1.42662e-21
6.31499e-23
5.28203e-23
4.78529e-24
-9.48501e-25
-2.40498e-25
-7.49335e-28
6.09485e-27
6.15697e-28
-8.75679e-29
-2.18991e-29
7.78049e-32
4.73715e-31
3.50125e-32
-6.81203e-33
-1.14646e-33
4.83128e-35
2.3461e-35
6.17958e-37
-3.50856e-37
-2.96802e-38
3.79943e-39
6.37315e-40
-2.29124e-41
-9.85667e-42
-1.41337e-43
1.20397e-43
6.75328e-45
-1.16918e-45
-1.21358e-46
8.52545e-48
1.58337e-48
-3.4978e-50
-1.66067e-50
-1.6285e-52
1.45407e-52
5.27819e-54
-1.07068e-54
-6.74191e-56
6.56472e-57
6.29667e-58
-3.27371e-59
-4.6905e-60
1.23249e-61
2.94079e-62
-2.50226e-64
-1.54999e-64
-6.66657e-67
7.01744e-67
9.62107e-69
-2.65587e-69
-5.49754e-71
8.46086e-72
2.10979e-73
-2.18824e-74
-5.72293e-76
4.37627e-77
1.10106e-78
-6.28855e-80
-1.20982e-81
5.61335e-83
7.26502e-85
-1.82933e-86
0.0602605
0.0305813
0.017673
0.0102027
0.00561347
0.00291137
0.0014051
0.000622674
0.000249613
8.88425e-05
2.73232e-05
6.87686e-06
1.20192e-06
2.76016e-08
-8.04874e-08
-3.77155e-08
-1.02259e-08
-1.5594e-09
7.17849e-11
1.24929e-10
3.90481e-11
5.58956e-12
-4.47247e-13
-4.38626e-13
-1.01516e-13
-5.28235e-15
3.60369e-15
1.13253e-15
9.95451e-17
-2.78327e-17
-1.00882e-17
-8.71037e-19
2.35458e-19
7.5762e-20
4.20161e-21
-2.02889e-21
-4.55726e-22
1.31298e-24
1.47933e-23
1.88924e-24
-2.07327e-25
-7.84815e-26
-3.00621e-27
1.77093e-27
2.55017e-28
-1.93392e-29
-7.8309e-30
-2.35375e-31
1.53402e-31
1.71488e-32
-1.87051e-33
-4.73314e-34
3.28065e-36
8.92879e-36
5.00046e-37
-1.22495e-37
-1.52795e-38
1.11031e-39
2.92809e-40
-1.71709e-42
-4.2391e-42
-1.70788e-43
4.85701e-44
4.21755e-45
-4.26874e-46
-6.62076e-47
2.43607e-48
8.09562e-49
1.42685e-51
-8.1265e-51
-2.58884e-52
6.76795e-53
4.1332e-54
-4.70905e-55
-4.48781e-56
2.6086e-57
3.88334e-58
-1.05501e-59
-2.79777e-60
1.83796e-62
1.70188e-62
1.45408e-64
-8.82526e-65
-1.82639e-66
3.88721e-67
1.18208e-68
-1.44449e-69
-5.49748e-71
4.50311e-72
1.9442e-73
-1.14608e-74
-5.12718e-76
2.32671e-77
9.71439e-79
-3.40342e-80
-1.18928e-81
3.07989e-83
6.31839e-85
-9.85093e-87
0.0390891
0.0163639
0.0098898
0.00554555
0.00295348
0.00148163
0.000689529
0.000293782
0.000112858
3.83515e-05
1.12079e-05
2.65542e-06
4.2225e-07
-1.44883e-09
-3.06097e-08
-1.28177e-08
-3.19336e-09
-4.46857e-10
2.29252e-11
3.27435e-11
9.46951e-12
1.27831e-12
-8.40509e-14
-8.46648e-14
-1.9433e-14
-1.36311e-15
5.09956e-16
1.86997e-16
2.28988e-17
-2.68873e-18
-1.56612e-18
-2.21595e-19
1.91445e-20
1.25351e-20
1.52391e-21
-2.14512e-22
-9.02395e-23
-6.02195e-24
2.22683e-24
4.95932e-25
-8.09877e-27
-1.6077e-26
-1.56819e-27
2.85786e-28
7.13337e-29
-6.17867e-31
-1.84631e-30
-1.44805e-31
3.07931e-32
5.67453e-33
-2.39451e-34
-1.3471e-34
-4.41767e-36
2.30089e-36
2.25081e-37
-2.75353e-38
-5.42648e-39
1.57807e-40
9.46897e-41
2.32386e-42
-1.28234e-42
-9.19756e-44
1.35069e-44
1.77668e-45
-9.98528e-47
-2.55143e-47
2.40574e-49
2.94801e-49
7.22781e-51
-2.828e-51
-1.56925e-52
2.23863e-53
2.04674e-54
-1.43033e-55
-2.04517e-56
6.66791e-58
1.68175e-58
-1.38427e-60
-1.17999e-60
-1.17323e-62
7.04262e-63
1.72211e-64
-3.5625e-65
-1.30155e-66
1.54898e-67
7.27711e-69
-5.65675e-70
-3.16937e-71
1.6934e-72
1.07952e-73
-4.24914e-75
-2.80974e-76
8.61196e-78
5.4454e-79
-1.25941e-80
-6.74805e-82
1.21757e-83
3.99573e-85
-4.03482e-87
0.0192606
0.00598296
0.00449559
0.0023628
0.00124125
0.000604651
0.00027145
0.000110752
4.04096e-05
1.29149e-05
3.49895e-06
7.45108e-07
9.40828e-08
-8.92886e-09
-9.62702e-09
-3.23097e-09
-6.65737e-10
-7.13462e-11
6.84589e-12
4.7335e-12
9.65957e-13
8.83359e-14
9.21734e-16
8.14734e-16
2.8079e-16
-1.69118e-16
-1.01275e-16
-1.77547e-17
1.71126e-18
1.37343e-18
2.0205e-19
-2.46107e-20
-1.30153e-20
-1.11957e-21
3.29435e-22
8.65676e-23
-2.15785e-25
-2.92445e-24
-3.22895e-25
5.74337e-26
1.54231e-26
-2.57919e-28
-4.59653e-28
-3.1004e-29
9.8698e-30
1.54597e-30
-1.38193e-31
-4.74947e-32
7.2442e-35
1.09919e-33
6.69337e-35
-1.96726e-35
-2.54234e-36
2.50345e-37
6.28573e-38
-1.35118e-39
-1.19394e-39
-3.60103e-41
1.81288e-41
1.41159e-42
-2.16218e-43
-3.0181e-44
1.8282e-45
4.85694e-46
-5.53623e-48
-6.34361e-48
-1.53213e-49
6.87532e-50
3.88474e-51
-6.17911e-52
-5.77841e-53
4.44865e-54
6.59789e-55
-2.34719e-56
-6.22535e-57
5.53235e-59
4.90743e-59
5.60534e-61
-3.34208e-61
-9.47665e-63
1.9487e-63
8.39838e-65
-9.59707e-66
-5.51748e-67
4.07545e-68
2.86959e-69
-1.44495e-70
-1.19316e-71
4.15752e-73
4.03368e-74
-1.00677e-75
-1.03793e-76
1.97114e-78
1.98773e-79
-2.92522e-81
-2.54769e-82
2.93998e-84
1.51358e-85
-9.61822e-88
0.00533484
0.00123229
0.00149877
0.000675585
0.000378294
0.000177533
7.69938e-05
2.96502e-05
9.99399e-06
2.86027e-06
6.56139e-07
1.00756e-07
8.61941e-12
-5.80205e-09
-2.02122e-09
-3.48908e-10
-7.45391e-12
1.04779e-11
1.04108e-12
-1.0243e-12
-4.83253e-13
-7.98607e-14
1.10285e-14
9.11979e-15
2.00939e-15
2.38204e-17
-1.02575e-16
-2.62003e-17
-1.13219e-18
9.38418e-19
2.39437e-19
7.5011e-21
-7.99745e-21
-1.64446e-21
2.12457e-23
5.95835e-23
7.86894e-24
-8.20476e-25
-3.4449e-25
-1.74154e-26
7.71692e-27
1.29374e-27
-6.95542e-29
-3.8895e-29
-1.81803e-30
7.4269e-31
9.93133e-32
-8.4578e-33
-2.63847e-33
-7.10881e-36
5.01902e-35
3.00086e-36
-7.33847e-37
-8.8791e-38
8.10509e-39
1.79013e-39
-5.45659e-41
-2.96067e-41
-2.44846e-43
4.23494e-43
1.63999e-44
-5.35753e-45
-3.7545e-46
6.03409e-47
6.38225e-48
-5.84241e-49
-9.08719e-50
4.70379e-51
1.12008e-51
-2.60331e-53
-1.22406e-53
2.96251e-57
1.16587e-55
2.32035e-57
-9.99249e-58
-3.63267e-59
7.23995e-60
3.93701e-61
-4.62255e-62
-3.3756e-63
2.55171e-64
2.36008e-65
-1.16543e-66
-1.37627e-67
4.54703e-69
6.7116e-70
-1.46072e-71
-2.68e-72
3.51738e-74
8.81973e-75
-6.96589e-77
-2.30318e-77
1.09767e-79
4.2652e-80
-1.707e-82
-5.64775e-83
2.21748e-85
3.40382e-86
-2.77252e-89
0.000154293
0.0001277
0.000230245
8.13692e-05
6.32227e-05
2.59289e-05
1.07879e-05
3.41747e-06
8.0963e-07
7.97072e-08
-4.07986e-08
-2.86057e-08
-9.85063e-09
-1.82488e-09
5.82271e-11
1.75613e-10
6.49163e-11
1.12175e-11
-6.77506e-13
-1.0735e-12
-3.32334e-13
-4.17714e-14
6.95853e-15
4.48039e-15
8.94274e-16
9.59527e-18
-4.12854e-17
-1.04172e-17
-5.45156e-19
3.28576e-19
9.04817e-20
4.71163e-21
-2.59041e-21
-6.33565e-22
-1.41634e-23
1.95783e-23
3.44413e-24
-1.35614e-25
-1.2561e-25
-1.2108e-26
2.16003e-27
5.87141e-28
6.4209e-30
-1.45376e-29
-1.59856e-30
1.99056e-31
5.48581e-32
2.08737e-34
-1.16232e-33
-9.43025e-35
1.64197e-35
2.95637e-36
-1.08722e-37
-5.98167e-38
-1.73359e-39
8.96325e-40
7.66393e-41
-9.89737e-42
-1.63778e-42
6.5592e-44
2.54423e-44
2.17881e-46
-3.18579e-46
-1.48545e-47
3.24875e-48
2.83215e-49
-2.65335e-50
-3.78917e-51
1.57146e-52
4.12034e-53
-4.08975e-55
-3.76483e-55
-5.50546e-57
3.0017e-57
9.56661e-59
-2.04099e-59
-1.0358e-60
1.22669e-61
8.4115e-63
-6.55663e-64
-5.53558e-65
3.07601e-66
3.11176e-67
-1.26382e-68
-1.50125e-69
4.62137e-71
5.99929e-72
-1.4484e-73
-2.00038e-74
3.82671e-76
5.57786e-77
-1.1307e-78
-1.19505e-79
1.52686e-81
1.72332e-82
-2.73396e-84
-1.50896e-85
1.81397e-87
8.58134e-89
-7.9315e-05
-2.69803e-05
-3.47043e-05
-1.82268e-05
-6.59942e-06
-5.13798e-06
-2.39751e-06
-1.32693e-06
-6.03212e-07
-2.42746e-07
-8.15018e-08
-2.18529e-08
-3.91816e-09
-4.5287e-11
2.82149e-10
1.23475e-10
3.00199e-11
3.33695e-12
-6.75468e-13
-4.39313e-13
-1.0616e-13
-9.18336e-15
2.81322e-15
1.26088e-15
2.08388e-16
-3.70282e-18
-1.01456e-17
-2.2732e-18
-1.01123e-19
6.97732e-20
1.88443e-20
1.15612e-21
-4.85485e-22
-1.33702e-22
-6.38378e-24
3.62219e-24
8.04104e-25
2.12323e-27
-2.57116e-26
-3.57793e-27
3.17263e-28
1.43442e-28
7.60689e-30
-3.07558e-30
-5.18966e-31
2.68627e-32
1.51891e-32
7.15493e-34
-2.83617e-34
-3.86038e-35
3.04571e-36
1.00716e-36
1.0329e-38
-1.83445e-38
-1.35244e-39
2.4081e-40
3.66775e-41
-1.90482e-42
-6.77557e-43
-5.09345e-45
9.58734e-45
5.1472e-46
-1.07032e-46
-1.11713e-47
8.93225e-49
1.68782e-49
-4.20067e-51
-2.01707e-51
-2.20744e-53
1.99865e-53
8.13462e-55
-1.64112e-55
-1.18573e-56
1.1202e-57
1.23692e-58
-5.95481e-60
-1.0488e-60
2.12636e-62
7.50512e-63
-7.12123e-66
-4.54734e-65
-6.10598e-67
2.3386e-67
5.98089e-69
-1.04023e-69
-3.58986e-71
3.86221e-72
1.62063e-73
-1.17567e-74
-5.76104e-76
3.03783e-77
1.449e-78
-6.17477e-80
-2.94914e-81
9.04765e-83
3.60188e-84
-8.50438e-86
-2.08652e-87
4.23814e-89
0.000102687
-7.99005e-05
7.22497e-06
-1.36689e-05
-6.61398e-06
-4.08583e-06
-1.8771e-06
-8.56537e-07
-3.2253e-07
-1.07828e-07
-2.93243e-08
-5.91007e-09
-4.63664e-10
2.35871e-10
1.33018e-10
3.84288e-11
6.47176e-12
1.44676e-13
-2.96913e-13
-1.00751e-13
-1.52754e-14
2.90508e-16
7.00896e-16
1.5452e-16
9.35801e-18
-3.00456e-18
-8.40811e-19
-7.53488e-20
5.07845e-21
2.10906e-21
3.99539e-22
9.43353e-23
9.59081e-24
-4.11842e-24
-1.52842e-24
-7.91402e-26
5.67208e-26
1.18444e-26
-5.94324e-28
-5.14065e-28
-4.05066e-29
1.26013e-29
2.60769e-30
-1.21229e-31
-8.70676e-32
-4.43985e-33
1.9362e-33
2.72326e-34
-2.60041e-35
-8.39399e-36
-9.7238e-39
1.82583e-37
1.2196e-38
-2.90607e-39
-4.12119e-40
3.04017e-41
9.03867e-42
-3.97952e-44
-1.51763e-43
-6.77999e-45
1.99775e-45
1.90596e-46
-2.0014e-47
-3.4237e-48
1.25729e-49
4.77692e-50
2.09843e-52
-5.45174e-52
-2.02987e-53
5.17331e-54
3.62005e-55
-4.00208e-56
-4.46973e-57
2.42904e-58
4.40991e-59
-9.71632e-61
-3.59413e-61
-1.22391e-64
2.51181e-63
4.50428e-65
-1.49786e-65
-4.86237e-67
7.52828e-68
3.46491e-69
-3.2801e-70
-1.87861e-71
1.18865e-72
8.02001e-74
-3.50028e-75
-2.76284e-76
8.75952e-78
7.1409e-79
-1.71639e-80
-1.38587e-81
2.51053e-83
1.7757e-84
-2.45774e-86
-1.05264e-87
1.04302e-89
0.00125665
-0.000307542
5.37756e-05
-1.08795e-05
-3.29227e-07
-1.19665e-06
-4.81535e-07
-2.18188e-07
-7.24714e-08
-2.08273e-08
-4.0763e-09
-2.60911e-10
2.16998e-10
1.10786e-10
3.00708e-11
4.47799e-12
-1.39575e-13
-2.59373e-13
-6.35304e-14
-2.254e-15
3.05514e-15
8.57552e-16
2.15301e-17
-4.70755e-17
-1.29504e-17
-5.0012e-19
5.63537e-19
1.51313e-19
6.14037e-21
-5.497e-21
-1.32718e-21
-2.17625e-23
4.74577e-23
8.64139e-24
-3.25283e-25
-3.40404e-25
-3.71635e-26
5.72428e-27
1.82943e-27
4.90253e-29
-4.52788e-29
-5.98538e-30
5.71019e-31
1.98938e-31
3.6015e-33
-4.20499e-33
-3.93627e-34
6.09696e-35
1.19353e-35
-4.7725e-37
-2.52977e-37
-3.89535e-39
4.34513e-39
2.53354e-40
-6.41961e-41
-6.55983e-42
8.31029e-43
1.33792e-43
-8.98725e-45
-2.36326e-45
6.7772e-47
3.71836e-47
1.41044e-49
-5.19704e-49
-1.71738e-50
6.29443e-51
3.93882e-52
-6.56117e-53
-6.31076e-54
5.67929e-55
8.21682e-56
-3.79413e-57
-8.86839e-58
1.48174e-59
8.33515e-60
3.94496e-62
-6.54282e-62
-1.52416e-63
4.49186e-64
1.78669e-65
-2.64879e-66
-1.46129e-67
1.30972e-68
9.33627e-70
-5.57163e-71
-4.85411e-72
1.98359e-73
2.01987e-74
-5.57163e-76
-6.87144e-77
1.31233e-78
1.82384e-79
-2.43129e-81
-3.4415e-82
3.57592e-84
4.58928e-85
-3.69044e-87
-2.76186e-88
3.09317e-91
0.00485426
-0.000487026
6.275e-05
-9.01527e-06
1.26338e-06
-2.70131e-07
-9.68983e-09
-1.55742e-08
-7.75238e-10
8.73868e-10
8.65283e-10
3.7505e-10
1.13206e-10
1.91352e-11
-4.88228e-13
-1.61354e-12
-5.71539e-13
-9.30897e-14
5.79522e-15
8.30475e-15
2.35381e-15
2.25233e-16
-6.97591e-17
-3.23856e-17
-5.12302e-18
3.00466e-19
3.18362e-19
6.11459e-20
-2.11716e-22
-2.62716e-21
-5.27222e-22
3.18493e-25
1.99678e-23
3.51293e-24
-1.12799e-25
-1.37592e-25
-1.72494e-26
1.89298e-27
7.90554e-28
4.63266e-29
-1.69585e-29
-3.25846e-30
8.97634e-32
9.30786e-32
7.09746e-33
-1.54066e-33
-3.02342e-34
8.10452e-36
7.09627e-36
3.88612e-37
-1.11987e-37
-1.52425e-38
1.0317e-39
3.35187e-40
2.81541e-42
-5.3337e-42
-3.369e-43
6.37613e-44
8.10932e-45
-5.22488e-46
-1.32034e-46
1.19087e-48
1.71085e-48
4.90801e-50
-1.81478e-50
-1.1547e-51
1.58628e-52
1.63063e-53
-1.10494e-54
-1.81813e-55
5.90814e-57
1.68675e-57
-1.421e-59
-1.38764e-59
-5.99762e-62
9.77626e-62
1.69352e-63
-6.41963e-64
-1.57489e-65
3.885e-66
1.06151e-67
-2.17459e-68
-6.30068e-70
1.0925e-70
3.24049e-72
-5.01505e-73
-1.33683e-74
1.91285e-75
5.10186e-77
-6.2321e-78
-1.55114e-79
1.81817e-80
3.53646e-82
-3.11227e-83
-5.24779e-85
4.74629e-86
4.23489e-88
-3.00154e-89
-9.50482e-91
0.010865
-0.000460279
4.24245e-05
-5.18572e-06
8.08331e-07
-8.32492e-08
3.90202e-08
7.62659e-09
4.95938e-09
1.68454e-09
5.59793e-10
1.28902e-10
1.60058e-11
-3.72718e-12
-2.81369e-12
-9.22909e-13
-1.69591e-13
-3.59016e-15
9.18944e-15
3.38106e-15
5.56749e-16
-1.46661e-17
-3.30761e-17
-8.43468e-18
-6.60843e-19
2.15879e-19
8.11117e-20
9.88548e-21
-1.08471e-21
-6.29029e-22
-8.98437e-23
5.52502e-24
4.38733e-24
6.25209e-25
-4.19822e-26
-2.88713e-26
-3.35954e-27
4.24193e-28
1.71183e-28
1.10034e-29
-3.69132e-30
-7.89973e-31
9.01443e-33
2.25701e-32
2.20539e-33
-3.46884e-34
-8.77728e-35
7.66774e-38
1.99808e-36
1.66803e-37
-2.91238e-38
-5.60018e-39
1.67096e-40
1.17473e-40
4.69528e-42
-1.77356e-42
-1.84897e-43
1.83851e-44
3.91163e-45
-7.62738e-47
-6.03429e-47
-1.83158e-48
7.32738e-49
5.52956e-50
-6.86189e-51
-9.36301e-52
4.42277e-53
1.19132e-53
-5.95883e-56
-1.23809e-55
-3.21019e-57
1.05987e-57
5.89112e-59
-7.60815e-60
-6.61691e-61
4.3236e-62
5.88121e-63
-1.86158e-64
-4.31292e-65
4.29456e-67
2.65208e-67
1.5034e-69
-1.37694e-69
-2.51013e-71
6.19896e-72
1.67073e-73
-2.31231e-74
-8.00693e-76
7.15588e-77
2.91516e-78
-1.86255e-79
-7.15707e-81
3.75138e-82
1.50777e-83
-5.53201e-85
-1.78997e-86
5.14324e-88
1.02946e-89
-4.75366e-91
0.00231393
-4.03744e-05
8.19996e-07
2.948e-08
5.13068e-08
-2.35693e-09
1.24468e-08
2.79288e-09
1.60257e-09
4.19088e-10
1.04266e-10
8.43248e-12
-4.66277e-12
-2.97201e-12
-9.16462e-13
-1.74839e-13
-6.95537e-15
7.68613e-15
2.9828e-15
5.26588e-16
-2.99002e-18
-2.657e-17
-6.70776e-18
-4.42534e-19
1.85764e-19
5.80817e-20
4.69559e-21
-1.22819e-21
-3.96582e-22
-2.9095e-23
7.64718e-24
2.07174e-24
1.08739e-25
-3.49515e-26
-7.44984e-27
-4.64921e-28
4.54492e-29
2.1397e-29
5.63438e-30
5.66617e-31
-1.64508e-31
-5.65204e-32
-2.00438e-33
1.8171e-33
2.89931e-34
-2.52183e-35
-1.11846e-35
-3.84856e-37
2.59512e-37
3.22906e-38
-3.61105e-39
-1.01688e-39
4.00089e-42
2.14926e-41
1.35258e-42
-3.26395e-43
-4.42909e-44
3.15245e-45
9.22664e-46
-2.67875e-48
-1.44012e-47
-6.62132e-49
1.75613e-49
1.68716e-50
-1.60434e-51
-2.78522e-52
8.87589e-54
3.56719e-54
2.55339e-56
-3.7445e-56
-1.44786e-57
3.22764e-58
2.29631e-59
-2.2837e-60
-2.54765e-61
1.2386e-62
2.25133e-63
-4.32931e-65
-1.6692e-65
-2.24869e-68
1.04241e-67
1.7868e-69
-5.45563e-70
-1.66316e-71
2.46549e-72
1.01355e-73
-9.25601e-75
-4.63678e-76
2.83188e-77
1.68082e-78
-7.26284e-80
-4.40221e-81
1.4294e-82
8.8727e-84
-2.12552e-85
-1.14744e-86
2.00226e-88
6.88475e-90
-1.2274e-91
-0.000218973
1.36447e-05
-1.12271e-06
1.39291e-07
-2.56667e-08
6.30243e-09
6.40698e-10
3.80541e-10
1.49321e-10
7.93776e-12
-7.04581e-12
-6.75561e-12
-2.56544e-12
-6.41939e-13
-7.52552e-14
1.40512e-14
1.05364e-14
2.66844e-15
2.48724e-16
-8.87655e-17
-4.27193e-17
-7.01467e-18
4.59641e-19
5.04917e-19
1.049e-19
3.1313e-22
-4.90587e-21
-1.10631e-21
-2.2836e-23
4.16602e-23
8.95345e-24
4.09022e-26
-3.22299e-25
-5.47598e-26
2.31866e-27
2.12491e-27
2.28582e-28
-3.33076e-29
-1.08131e-29
-3.6398e-31
2.45984e-31
3.51134e-32
-2.46769e-33
-1.04179e-33
-3.63519e-35
1.88476e-35
2.14846e-36
-2.10399e-37
-5.18618e-38
7.28684e-40
8.69551e-40
2.10265e-41
-1.22344e-41
-4.80264e-43
1.81788e-43
6.31842e-45
-3.31134e-45
-1.3246e-46
6.47684e-47
3.96674e-48
-1.10845e-48
-1.07443e-49
1.47708e-50
2.27067e-51
-1.39354e-52
-3.74672e-53
5.80165e-55
5.05182e-55
9.36521e-57
-5.62113e-57
-2.7821e-58
5.1268e-59
4.2351e-60
-3.76326e-61
-4.88571e-62
2.11999e-63
4.43675e-64
-6.89102e-66
-3.42132e-66
-1.74047e-68
2.22487e-68
4.7323e-70
-1.20293e-70
-4.23993e-72
5.59055e-73
2.60483e-74
-2.15504e-75
-1.20634e-76
6.63305e-78
4.46191e-79
-1.71509e-80
-1.23818e-81
3.36382e-83
2.45624e-84
-4.96586e-86
-3.3541e-87
4.61459e-89
2.06308e-90
-9.02294e-93
1.08698e-05
-1.18248e-06
1.23577e-07
-1.70524e-08
-1.17959e-09
9.58499e-10
-5.22216e-10
-2.48314e-11
-5.77966e-11
-2.16062e-11
-8.00762e-12
-2.2385e-12
-3.47483e-13