/*--------------------------------*- C++ -*----------------------------------*\
  =========                 |
  \\      /  F ield         | OpenFOAM: The Open Source CFD Toolbox
   \\    /   O peration     | Website:  https://openfoam.org
    \\  /    A nd           | Version:  7
     \\/     M anipulation  |
\*---------------------------------------------------------------------------*/
FoamFile
{
    version     2.0;
    format      ascii;
    class       surfaceScalarField;
    location    "1123200.0";
    object      phi;
}
// * * * * * * * * * * * * * * * * * * * * * * * * * * * * * * * * * * * * * //

dimensions      [0 3 -1 0 0 0 0];

internalField   nonuniform List<scalar> 
10539
(
0.0026283
0.00080828
0.00261274
0.000979083
0.00237373
0.00109962
0.00212838
0.00118235
0.00188814
0.0012262
0.00166281
0.00123493
0.00145845
0.00121515
0.00127753
0.00117477
0.00111981
0.00112198
0.000983664
0.00106411
0.000866571
0.00100665
0.000766036
0.000952836
0.000679542
0.000904193
0.000604921
0.000861073
0.000540416
0.000822952
0.000484378
0.000789363
0.000435565
0.00075958
0.000392939
0.000733076
0.000355616
0.000709324
0.000322843
0.000688009
0.000293963
0.000668771
0.000268442
0.000651301
0.000245853
0.000635364
0.000225808
0.000620805
0.000207953
0.000607377
0.000192056
0.000594957
0.000177779
0.000583491
0.00016503
0.00057275
0.000153537
0.000562737
0.00014319
0.0005533
0.000133854
0.000544416
0.00012539
0.000536002
0.000117695
0.000528052
0.000110704
0.000520428
0.000104339
0.000513161
9.85326e-05
0.000506193
9.31787e-05
0.000499539
8.83606e-05
0.000492992
8.36053e-05
0.000487047
7.96336e-05
0.000480696
7.57383e-05
0.000475154
7.21129e-05
0.000469287
6.87275e-05
0.000463974
6.57802e-05
0.000458314
6.2804e-05
0.000453405
6.0223e-05
0.000448129
5.75776e-05
0.000443143
5.50718e-05
0.000438438
5.29133e-05
0.000433347
5.08691e-05
0.000428746
4.8928e-05
0.000424189
4.68605e-05
0.000419671
4.50968e-05
0.000415188
4.31898e-05
0.000410956
4.15716e-05
0.000406314
4.00153e-05
0.000402356
3.8516e-05
0.000397983
3.7068e-05
0.000393849
3.56664e-05
0.000389954
3.43076e-05
0.000385856
3.27686e-05
0.000381992
3.17028e-05
0.000377924
3.04504e-05
0.000374087
2.92274e-05
0.000370262
2.80311e-05
0.000366665
2.68592e-05
0.000362859
2.59281e-05
0.000359062
2.47988e-05
0.000355491
2.39063e-05
0.000351927
2.25937e-05
0.000348588
2.17335e-05
0.000344818
2.06691e-05
0.00034149
1.98361e-05
0.000337949
1.90149e-05
0.00033463
1.79864e-05
0.000331316
1.69679e-05
0.000328005
1.6177e-05
0.000324698
1.53945e-05
0.000321394
1.46198e-05
0.000318093
1.36337e-05
0.000315231
1.30905e-05
0.000311716
1.21167e-05
0.000308859
1.13662e-05
0.000305785
1.06206e-05
0.000302714
9.87936e-06
0.000299644
8.9238e-06
0.000296794
8.19002e-06
0.000293727
7.67767e-06
0.000290661
6.73187e-06
0.000288034
6.22508e-06
0.000284971
5.50249e-06
0.000282345
4.56394e-06
0.000279503
4.06362e-06
0.000276661
3.3469e-06
0.000273821
2.6316e-06
0.000271417
2.13583e-06
0.00026836
1.20485e-06
0.000265958
7.0637e-07
0.000263121
0.00026072
0.00262965
0.000984197
0.00258586
0.00117645
0.00234834
0.00131923
0.00210994
0.0014158
0.0018755
0.0014602
0.00165368
0.00145685
0.00145133
0.00141686
0.00127181
0.00135283
0.00111526
0.00127666
0.000980135
0.00119739
0.000864041
0.0011212
0.000764387
0.00105132
0.00067866
0.00098906
0.000604793
0.000934295
0.000540896
0.000886346
0.000485459
0.000844388
0.000437211
0.000807483
0.000395123
0.000774873
0.000358194
0.000746005
0.000325794
0.000720199
0.000297265
0.000697121
0.000272049
0.000676364
0.000249724
0.000657556
0.000229906
0.000640508
0.000212245
0.000624939
0.000196462
0.000610655
0.000182365
0.000597514
0.000169702
0.000585351
0.000158317
0.000574067
0.000148034
0.000563535
0.000138744
0.000553663
0.000130309
0.000544401
0.000122673
0.000535655
0.000115703
0.000527368
0.000109324
0.000519514
0.000103469
0.000512025
9.81238e-05
0.000504863
9.31472e-05
0.00049795
8.87174e-05
0.00049146
8.43926e-05
0.000485006
8.05836e-05
0.000478949
7.68134e-05
0.000473046
7.35007e-05
0.000467277
7.01763e-05
0.000461629
6.74842e-05
0.000456088
6.45168e-05
0.000451089
6.19234e-05
0.000445729
5.94654e-05
0.000440889
5.71312e-05
0.000435675
5.49082e-05
0.000430964
5.27851e-05
0.000426307
5.07522e-05
0.000421699
4.88012e-05
0.000417135
4.71439e-05
0.00041261
4.53339e-05
0.000408121
4.35839e-05
0.000404103
4.1889e-05
0.000399675
4.04636e-05
0.000395272
3.88636e-05
0.000391551
3.75242e-05
0.000387193
3.62221e-05
0.000383292
3.47351e-05
0.000379409
3.34983e-05
0.000375322
3.20708e-05
0.000371688
3.08879e-05
0.000367847
2.97287e-05
0.000364018
2.8372e-05
0.000360418
2.72537e-05
0.000356608
2.61532e-05
0.000353027
2.52874e-05
0.000349453
2.39994e-05
0.000346105
2.29435e-05
0.000342545
2.19003e-05
0.000338991
2.08684e-05
0.000335661
2.00656e-05
0.000332118
1.90539e-05
0.000329016
1.8051e-05
0.0003257
1.70563e-05
0.000322388
1.60689e-05
0.00031908
1.53066e-05
0.000315993
1.41138e-05
0.000312909
1.33632e-05
0.000309609
1.26176e-05
0.000306531
1.16583e-05
0.000303673
1.09214e-05
0.00030038
1.01883e-05
0.000297526
9.24031e-06
0.000294674
8.29548e-06
0.000291606
7.57165e-06
0.000288757
6.63215e-06
0.00028591
5.91315e-06
0.000283064
5.19623e-06
0.00028022
4.48116e-06
0.000277376
3.54951e-06
0.000274752
3.05568e-06
0.000271911
2.12672e-06
0.000269289
1.41699e-06
0.000266668
7.03681e-07
0.00026383
0.000261428
0.00261164
0.00117723
0.0025474
0.00139479
0.00230181
0.00154916
0.00206431
0.00165027
0.00183486
0.00169093
0.00161855
0.00167468
0.00142112
0.00161479
0.00124565
0.0015277
0.00109271
0.00142829
0.00096077
0.00132781
0.000847511
0.00123305
0.000750364
0.00114731
0.000666904
0.00107162
0.000595001
0.0010055
0.000532815
0.000947978
0.000478883
0.000897866
0.000431954
0.000854033
0.00039096
0.000815546
0.000355093
0.0007816
0.000323541
0.00075152
0.000295778
0.000724687
0.000271256
0.000700717
0.000249513
0.000679156
0.0002302
0.000659697
0.000213002
0.00064203
0.000197621
0.000625942
0.000183851
0.000611203
0.000171467
0.000597664
0.000160345
0.000585126
0.000150289
0.000573536
0.000141169
0.000562736
0.000132898
0.000552629
0.000125378
0.000543137
0.000118502
0.000534212
0.000112218
0.000525769
0.000106462
0.000517756
0.000101177
0.000510126
9.62439e-05
0.000502863
9.18696e-05
0.000495816
8.74487e-05
0.000489411
8.37615e-05
0.000482622
8.01004e-05
0.000476694
7.66644e-05
0.000470701
7.34308e-05
0.000464852
7.03787e-05
0.000459132
6.77106e-05
0.000453748
6.49661e-05
0.000448466
6.25738e-05
0.000443275
6.00778e-05
0.000438164
5.79104e-05
0.000433126
5.56172e-05
0.000428596
5.36312e-05
0.000423681
5.17234e-05
0.000419039
4.98863e-05
0.000414444
4.78927e-05
0.000410111
4.63969e-05
0.000405596
4.47335e-05
0.000401335
4.28979e-05
0.000397105
4.15446e-05
0.000392902
4.00111e-05
0.000388724
3.85132e-05
0.000384788
3.70478e-05
0.000380873
3.56121e-05
0.000376756
3.44224e-05
0.000372876
3.3038e-05
0.00036923
3.16761e-05
0.000365378
3.05534e-05
0.000361539
2.92305e-05
0.00035793
2.81433e-05
0.000354113
2.68527e-05
0.000350743
2.5795e-05
0.000347162
2.47502e-05
0.000343589
2.34986e-05
0.000340242
2.24765e-05
0.000336683
2.12459e-05
0.000333348
2.02428e-05
0.000330019
1.94666e-05
0.000326476
1.84795e-05
0.000323375
1.7281e-05
0.000320278
1.63072e-05
0.000316966
1.55576e-05
0.000313658
1.43765e-05
0.00031079
1.34186e-05
0.000307488
1.26833e-05
0.000304408
1.15153e-05
0.000301548
1.07875e-05
0.000298254
9.84455e-06
0.000295617
8.90455e-06
0.000292546
8.18549e-06
0.000289476
7.25051e-06
0.000286845
6.53598e-06
0.000283778
5.6051e-06
0.00028115
4.67598e-06
0.000278305
3.96664e-06
0.000275461
3.04039e-06
0.000272837
2.33356e-06
0.000269996
1.6277e-06
0.000267374
7.00257e-07
0.000264753
0.000262133
0.00256407
0.00136883
0.00248911
0.0016268
0.00223381
0.00179322
0.00199234
0.00189205
0.00176526
0.00192186
0.00155481
0.00188848
0.00136433
0.00180701
0.00119593
0.0016963
0.00104941
0.001574
0.0009233
0.00145267
0.000815173
0.00133988
0.000722497
0.00123884
0.000642937
0.00115025
0.00057441
0.00107329
0.000515182
0.00100661
0.00046382
0.00094874
0.000419078
0.000898367
0.000380008
0.000854271
0.000345794
0.000815523
0.000315732
0.000781334
0.000289205
0.000751002
0.000265766
0.000723976
0.00024499
0.000699777
0.000226523
0.00067803
0.000210042
0.000658396
0.000195307
0.000640577
0.000182103
0.000624321
0.000170241
0.00060945
0.00015953
0.000595771
0.000149852
0.000583157
0.000141088
0.000571449
0.00013313
0.000560543
0.000125838
0.00055039
0.000119202
0.000540813
0.000113131
0.00053181
0.000107537
0.000523324
0.000102366
0.000515272
9.75971e-05
0.000507611
9.30264e-05
0.000500368
8.92305e-05
0.00049319
8.5249e-05
0.000486589
8.17306e-05
0.000480199
7.84249e-05
0.000473995
7.53097e-05
0.000467957
7.23653e-05
0.000462066
6.95736e-05
0.000456531
6.69197e-05
0.000451112
6.43882e-05
0.000445798
6.19684e-05
0.000440577
5.96496e-05
0.00043544
5.76423e-05
0.000430598
5.54944e-05
0.000425824
5.36414e-05
0.000420888
5.16337e-05
0.000416448
4.99065e-05
0.000411835
4.80131e-05
0.000407486
4.63892e-05
0.000402956
4.45896e-05
0.000398901
4.30505e-05
0.000394438
4.15485e-05
0.000390224
4.00795e-05
0.000386255
3.86409e-05
0.000382309
3.72299e-05
0.000378166
3.56249e-05
0.000374479
3.44813e-05
0.000370372
3.31393e-05
0.000366719
3.18164e-05
0.000362861
3.07298e-05
0.000359016
2.9221e-05
0.000355621
2.81645e-05
0.000351798
2.69022e-05
0.000348423
2.56521e-05
0.000344838
2.46317e-05
0.000341262
2.36214e-05
0.000337692
2.24017e-05
0.000334567
2.14091e-05
0.000331011
2.02057e-05
0.000327679
1.90093e-05
0.000324571
1.82565e-05
0.000321031
1.7291e-05
0.000317932
1.61125e-05
0.000314837
1.51572e-05
0.000311745
1.42064e-05
0.000308439
1.32596e-05
0.000305354
1.23164e-05
0.000302491
1.11582e-05
0.000299412
1.04396e-05
0.000296335
9.50538e-06
0.000293479
8.57363e-06
0.000290407
7.64403e-06
0.000287774
6.71649e-06
0.000284706
6.009e-06
0.000281857
5.08481e-06
0.000279229
4.16205e-06
0.000276384
3.45881e-06
0.00027354
2.53836e-06
0.000270916
1.61879e-06
0.000268293
6.96174e-07
0.000265672
0.000262833
0.00247926
0.00155169
0.00239851
0.00186721
0.00213534
0.00205003
0.00188911
0.00214263
0.00166342
0.00215457
0.0014596
0.00209785
0.00127853
0.00199122
0.00112019
0.00185566
0.000983368
0.00171047
0.000865929
0.00156908
0.000765576
0.00143903
0.000679655
0.00132364
0.000605936
0.00122303
0.000542375
0.00113608
0.000487442
0.00106092
0.000439733
0.000995938
0.000398214
0.000939459
0.000361908
0.000890219
0.000330069
0.000847059
0.000302066
0.000809079
0.000277341
0.000775508
0.000255486
0.000745643
0.000236071
0.000719031
0.000218763
0.0006952
0.000203342
0.000673698
0.000189547
0.000654269
0.000177141
0.000636637
0.000165978
0.000620535
0.000155908
0.000605774
0.000146777
0.000592228
0.00013849
0.000579684
0.000130952
0.000568035
0.000124079
0.000557223
0.00011777
0.000547086
0.000111984
0.000537564
0.000106643
0.000528637
0.000101741
0.00052015
9.71867e-05
0.000512143
9.30806e-05
0.000504455
8.90465e-05
0.000497206
8.52583e-05
0.000490362
8.19183e-05
0.000483525
7.8774e-05
0.000477127
7.55806e-05
0.000471139
7.27701e-05
0.000464867
7.01009e-05
0.000459192
6.7558e-05
0.000453647
6.51286e-05
0.00044822
6.28012e-05
0.000442897
6.05682e-05
0.000437668
5.84174e-05
0.000432744
5.63408e-05
0.000427895
5.43328e-05
0.000422892
5.23853e-05
0.000418392
5.04935e-05
0.000413723
4.8872e-05
0.000409105
4.70753e-05
0.00040475
4.576e-05
0.000400214
4.40414e-05
0.000396154
4.23565e-05
0.000391906
4.09222e-05
0.000387687
3.95155e-05
0.000383714
3.79146e-05
0.000379765
3.67757e-05
0.000375617
3.5219e-05
0.000371927
3.39006e-05
0.000368036
3.25997e-05
0.000364161
3.13146e-05
0.0003603
3.00439e-05
0.00035689
2.87863e-05
0.000353055
2.77597e-05
0.000349449
2.65252e-05
0.000346072
2.53007e-05
0.000342485
2.40854e-05
0.000338907
2.30973e-05
0.000335555
2.18981e-05
0.00033221
2.07061e-05
0.000328871
1.97391e-05
0.000325538
1.85594e-05
0.00032221
1.76036e-05
0.000318887
1.64341e-05
0.000316006
1.5706e-05
0.000312473
1.4545e-05
0.0003096
1.33876e-05
0.000306512
1.26704e-05
0.000303208
1.17377e-05
0.000300344
1.05893e-05
0.000297484
9.66175e-06
0.000294407
8.73643e-06
0.000291332
8.03144e-06
0.000288479
6.89151e-06
0.000285845
5.97159e-06
0.000282777
5.27142e-06
0.000279929
4.3542e-06
0.000277301
3.43809e-06
0.000274456
2.52293e-06
0.000271831
1.60857e-06
0.000269208
9.09833e-07
0.000266367
0.000263746
0.00235239
0.00172393
0.00226536
0.00211452
0.00199498
0.00231782
0.00174568
0.00240019
0.00152366
0.0023869
0.00132914
0.0023003
0.00116074
0.00216421
0.00101606
0.00200218
0.000892539
0.00183406
0.000787371
0.00167342
0.000697624
0.00152766
0.000620862
0.00139932
0.000554963
0.00128799
0.000498194
0.00119208
0.000449024
0.00110946
0.000406286
0.00103816
0.000369003
0.000976314
0.000336356
0.000922506
0.000307656
0.000875456
0.000282397
0.000834081
0.000260039
0.000797646
0.000240226
0.000765269
0.000222607
0.000736489
0.000206904
0.000710765
0.000192839
0.000687644
0.000180226
0.000666778
0.000168893
0.000647881
0.000158672
0.000630678
0.000149386
0.000614992
0.000141014
0.00060054
0.000133383
0.000587262
0.000126405
0.000574967
0.000120049
0.000563538
0.000114203
0.000552897
0.000108807
0.000542928
0.000103856
0.00053356
9.92601e-05
0.000524721
9.50009e-05
0.00051638
9.08843e-05
0.000508552
8.7339e-05
0.000500735
8.37856e-05
0.000493899
8.06587e-05
0.000486638
7.74819e-05
0.000480291
7.46893e-05
0.00047392
7.18137e-05
0.000467733
6.92902e-05
0.000461706
6.68801e-05
0.00045605
6.45718e-05
0.000450521
6.21321e-05
0.00044533
6.00003e-05
0.000439795
5.79421e-05
0.000434798
5.61725e-05
0.00042966
5.42417e-05
0.000424818
5.23654e-05
0.000420264
5.07595e-05
0.000415326
4.89776e-05
0.000410883
4.72357e-05
0.000406489
4.55308e-05
0.000401916
4.40793e-05
0.000397604
4.24376e-05
0.000393546
4.08235e-05
0.0003893
3.9454e-05
0.000385082
3.8107e-05
0.00038111
3.67805e-05
0.000376942
3.54724e-05
0.000373234
3.41813e-05
0.000369326
3.29056e-05
0.000365435
3.1425e-05
0.000361779
3.01761e-05
0.000358138
2.89391e-05
0.000354291
2.77127e-05
0.000350674
2.67149e-05
0.000347069
2.55071e-05
0.000343692
2.43074e-05
0.000340106
2.31152e-05
0.000336746
2.21486e-05
0.000333176
2.09694e-05
0.000330049
2.00146e-05
0.000326492
1.88464e-05
0.000323378
1.76829e-05
0.00032005
1.67422e-05
0.000316946
1.55869e-05
0.000313628
1.46536e-05
0.000310533
1.37235e-05
0.000307442
1.25779e-05
0.000304354
1.16533e-05
0.000301269
1.07311e-05
0.000298406
9.81097e-06
0.000295327
8.89283e-06
0.00029225
7.75803e-06
0.000289613
7.06158e-06
0.000286542
6.14818e-06
0.00028369
5.01766e-06
0.00028106
4.325e-06
0.000277994
3.41494e-06
0.000275367
2.5057e-06
0.000272741
1.81551e-06
0.000269898
9.04682e-07
0.000267275
0.000264654
0.00217641
0.00188825
0.00207793
0.00237389
0.00180027
0.00259693
0.00155177
0.0026612
0.00133829
0.00261408
0.00115828
0.0024905
0.00100767
0.00232077
0.000881699
0.00213072
0.000775805
0.00194038
0.000686332
0.00176226
0.000610424
0.00160257
0.000545546
0.00146318
0.000489757
0.00134289
0.000441596
0.00123951
0.000399736
0.00115072
0.000363275
0.00107413
0.000331298
0.00100788
0.000303243
0.000950216
0.000278514
0.000899894
0.000256628
0.000855721
0.000237252
0.00081681
0.000219966
0.000782376
0.000204576
0.000751724
0.000190818
0.000724389
0.000178482
0.000699865
0.000167369
0.000677791
0.000157348
0.000657814
0.000148269
0.000639681
0.00014006
0.000623134
0.000132578
0.000607965
0.000125758
0.000594031
0.000119501
0.000581178
0.000113767
0.000569233
0.000108522
0.000558108
0.000103664
0.000547755
9.91538e-05
0.000538044
9.49729e-05
0.000528878
9.10894e-05
0.000520242
8.75858e-05
0.000512036
8.38842e-05
0.000504419
8.10642e-05
0.000496704
7.77296e-05
0.000489959
7.5005e-05
0.000483004
7.24169e-05
0.000476498
6.97258e-05
0.000470414
6.73711e-05
0.000464053
6.48904e-05
0.000458523
6.2722e-05
0.000452682
6.08564e-05
0.000447189
5.88404e-05
0.000441806
5.68886e-05
0.000436745
5.47717e-05
0.000431772
5.29297e-05
0.000426656
5.13567e-05
0.000421833
4.96048e-05
0.000417074
4.78911e-05
0.000412594
4.64334e-05
0.000407944
4.47863e-05
0.000403561
4.3168e-05
0.00039922
4.17957e-05
0.000394916
4.04469e-05
0.000390647
3.91193e-05
0.000386408
3.7591e-05
0.000382637
3.60806e-05
0.000378451
3.48059e-05
0.000374508
3.35456e-05
0.000370585
3.22985e-05
0.000366681
3.10634e-05
0.000363014
3.00584e-05
0.000359142
2.88442e-05
0.000355504
2.742e-05
0.000352098
2.62233e-05
0.000348265
2.5253e-05
0.000344662
2.40708e-05
0.000341287
2.28948e-05
0.000337922
2.17247e-05
0.000334345
2.07787e-05
0.000330995
1.96187e-05
0.000327652
1.86819e-05
0.000324315
1.75303e-05
0.000321202
1.6601e-05
0.000317876
1.56751e-05
0.000314554
1.45335e-05
0.000311674
1.36131e-05
0.000308362
1.26952e-05
0.000305271
1.1561e-05
0.000302403
1.08658e-05
0.000299101
9.7354e-06
0.000296457
8.82516e-06
0.00029316
7.91635e-06
0.000290522
7.00888e-06
0.000287449
6.10261e-06
0.000284597
5.19739e-06
0.000281965
4.29313e-06
0.000278898
3.38967e-06
0.00027627
2.48689e-06
0.000273644
1.58472e-06
0.0002708
8.99048e-07
0.000267959
0.000265555
0.00194701
0.00205665
0.00182707
0.00265949
0.00153947
0.0028906
0.0012968
0.00292082
0.00109988
0.0028278
0.000942516
0.00265994
0.000816855
0.00245344
0.000715359
0.00223534
0.000632155
0.00202433
0.000562736
0.00183124
0.000503946
0.00166049
0.000453713
0.00151251
0.000410306
0.00138549
0.000372587
0.00127656
0.000339634
0.00118313
0.000310668
0.00110265
0.000285182
0.001033
0.000262621
0.000972468
0.000242645
0.000919609
0.000224817
0.000873326
0.000208954
0.000832483
0.000194771
0.000796396
0.000182034
0.000764319
0.000170587
0.000735713
0.000160277
0.000710069
0.000150941
0.000687036
0.000142515
0.000666159
0.000134841
0.000647285
0.000127858
0.000630056
0.000121461
0.000614308
0.000115608
0.000599836
0.000110262
0.000586482
0.000105323
0.000574135
0.000100718
0.00056268
9.64809e-05
0.000551963
9.25739e-05
0.000541925
8.88954e-05
0.000532534
8.54637e-05
0.000523654
8.22783e-05
0.000515204
7.9385e-05
0.000507296
7.61903e-05
0.000499885
7.38256e-05
0.000492312
7.11295e-05
0.000485689
6.87744e-05
0.000478843
6.65197e-05
0.00047266
6.41298e-05
0.000466435
6.22723e-05
0.000460374
6.00372e-05
0.00045491
5.8092e-05
0.000449128
5.62076e-05
0.000443687
5.43753e-05
0.000438574
5.28123e-05
0.000433331
5.10701e-05
0.000428395
4.93666e-05
0.000423534
4.76982e-05
0.00041874
4.62827e-05
0.000414007
4.46744e-05
0.00040955
4.33129e-05
0.00040492
4.17538e-05
0.000400777
4.04364e-05
0.000396232
3.9138e-05
0.000391943
3.76367e-05
0.000387908
3.63713e-05
0.000383901
3.51201e-05
0.000379701
3.38819e-05
0.000375745
3.26555e-05
0.000371811
3.14398e-05
0.000367896
3.02337e-05
0.000364219
2.90366e-05
0.000360339
2.78475e-05
0.000356692
2.68849e-05
0.00035306
2.57099e-05
0.000349439
2.4322e-05
0.000346049
2.33777e-05
0.000342231
2.24385e-05
0.000338861
2.1285e-05
0.000335498
2.01358e-05
0.000332144
1.92093e-05
0.000328578
1.80676e-05
0.000325456
1.71477e-05
0.000322121
1.62308e-05
0.000318792
1.50979e-05
0.000315687
1.41859e-05
0.000312586
1.32761e-05
0.000309271
1.21497e-05
0.000306397
1.14621e-05
0.00030309
1.0339e-05
0.000300223
9.6544e-06
0.000297141
8.53414e-06
0.00029428
7.6335e-06
0.000291422
6.73396e-06
0.000288348
5.83536e-06
0.000285495
5.15601e-06
0.000282644
4.04057e-06
0.000280013
3.36261e-06
0.000276948
2.46676e-06
0.000274539
1.78979e-06
0.000271477
6.746e-07
0.000269072
0.000266232
0.00165862
0.00225451
0.00149642
0.00298323
0.00119799
0.00319794
0.000970237
0.00316905
0.000801786
0.00301527
0.000678213
0.00279677
0.000586838
0.00255241
0.000517261
0.00230838
0.000462274
0.0020803
0.000417155
0.00187613
0.000379016
0.00169796
0.000346046
0.00154475
0.000317252
0.00141363
0.000291792
0.00130149
0.00026915
0.00120533
0.000249045
0.0011224
0.000230992
0.00105075
0.000214845
0.000988364
0.000200279
0.000933961
0.000187231
0.000886191
0.000175408
0.000844149
0.000164761
0.000806906
0.0001551
0.000773861
0.000146344
0.000744366
0.000138364
0.000717958
0.000131128
0.000694192
0.000124476
0.000672742
0.00011842
0.00065328
0.000112874
0.000635548
0.00010778
0.000619354
0.000103067
0.000604507
9.86923e-05
0.00059082
9.46426e-05
0.000578153
9.08853e-05
0.000566408
8.73898e-05
0.000555433
8.40833e-05
0.000545209
8.10123e-05
0.000535585
7.81334e-05
0.000526515
7.54513e-05
0.00051787
7.27172e-05
0.000510017
7.05644e-05
0.000502025
6.80584e-05
0.000494806
6.58768e-05
0.000487861
6.35534e-05
0.000481158
6.17604e-05
0.000474445
5.98093e-05
0.000468378
5.79198e-05
0.000462257
5.60843e-05
0.000456739
5.45226e-05
0.000450684
5.25592e-05
0.000445647
5.10825e-05
0.000440047
4.94177e-05
0.000434992
4.80079e-05
0.000429801
4.6627e-05
0.000424912
4.50504e-05
0.000420314
4.34979e-05
0.000415557
4.2188e-05
0.000410857
4.08974e-05
0.000406209
3.9624e-05
0.000402048
3.83663e-05
0.000397488
3.69026e-05
0.000393406
3.56722e-05
0.000389137
3.46734e-05
0.000384898
3.34653e-05
0.000380908
3.22668e-05
0.000376942
3.1077e-05
0.000372999
2.96757e-05
0.000369296
2.87208e-05
0.000365173
2.75529e-05
0.000361506
2.6391e-05
0.000357854
2.52345e-05
0.000354216
2.43021e-05
0.000350371
2.33742e-05
0.000346977
2.22314e-05
0.000343374
2.10923e-05
0.000339999
2.01756e-05
0.000336415
1.9262e-05
0.000333057
1.81325e-05
0.000329707
1.72243e-05
0.000326364
1.63184e-05
0.000323027
1.54146e-05
0.000319696
1.45127e-05
0.000316589
1.36125e-05
0.000313486
1.24953e-05
0.000310388
1.18166e-05
0.000307076
1.07021e-05
0.000304205
9.80727e-06
0.000301118
8.9135e-06
0.000298035
8.23916e-06
0.000294955
7.34718e-06
0.000292314
6.45596e-06
0.000289239
5.56545e-06
0.000286386
4.67554e-06
0.000283534
4.00459e-06
0.000280684
3.11568e-06
0.000277837
2.44557e-06
0.00027521
1.55737e-06
0.000272366
8.8662e-07
0.000269742
0.000267119
0.00128803
0.00254712
0.0010475
0.00334961
0.000753664
0.0035021
0.000560837
0.00338441
0.00043928
0.00315676
0.000364615
0.00288496
0.000318665
0.00260606
0.000289166
0.0023415
0.000268185
0.00210252
0.000251639
0.00189276
0.000237249
0.00171199
0.000224156
0.0015574
0.000211856
0.00142553
0.000200262
0.00131275
0.000189333
0.00121599
0.000179019
0.00113249
0.000169397
0.00106018
0.000160342
0.000997254
0.000151951
0.000942211
0.000144129
0.000893887
0.000136914
0.000851253
0.000130178
0.000813544
0.00012398
0.000779973
0.000118223
0.000750046
0.000112901
0.000723212
0.000107952
0.000699081
0.000103398
0.000677243
9.91516e-05
0.000657478
9.51847e-05
0.000639473
9.1496e-05
0.000623005
8.80605e-05
0.000607909
8.48546e-05
0.000593996
8.18326e-05
0.000581148
7.90003e-05
0.000569217
7.63163e-05
0.000558097
7.38123e-05
0.000547694
7.14273e-05
0.000537953
6.91252e-05
0.000528802
6.68724e-05
0.00052011
6.48446e-05
0.000512033
6.28471e-05
0.000504013
6.0918e-05
0.000496727
5.92787e-05
0.000489492
5.74653e-05
0.000482964
5.57018e-05
0.000476202
5.42086e-05
0.000469866
5.25292e-05
0.000463932
5.11093e-05
0.000458154
4.94966e-05
0.000452291
4.81381e-05
0.000447003
4.68047e-05
0.000441378
4.54931e-05
0.0004363
4.39798e-05
0.000431312
4.24857e-05
0.000426403
4.14523e-05
0.000421345
4.0212e-05
0.000416796
3.89853e-05
0.000412082
3.75499e-05
0.000407643
3.65674e-05
0.00040303
3.5374e-05
0.00039868
3.41896e-05
0.000394589
3.30134e-05
0.000390312
3.18447e-05
0.000386066
3.06827e-05
0.000382069
2.97466e-05
0.000377878
2.85962e-05
0.000374149
2.76704e-05
0.000370222
2.65295e-05
0.000366314
2.56121e-05
0.000362423
2.46982e-05
0.000358767
2.37877e-05
0.000355126
2.2661e-05
0.000351497
2.17563e-05
0.000347881
2.0635e-05
0.000344495
1.9954e-05
0.00034068
1.88373e-05
0.000337531
1.79413e-05
0.000333953
1.70471e-05
0.000330602
1.61544e-05
0.000327257
1.52631e-05
0.000323918
1.43731e-05
0.000320586
1.34842e-05
0.000317478
1.25964e-05
0.000314374
1.1928e-05
0.000311057
1.08233e-05
0.000308181
1.01565e-05
0.000304871
9.27183e-06
0.000302003
8.38777e-06
0.000298919
7.50429e-06
0.000295838
6.83978e-06
0.000292979
6.17572e-06
0.000289903
5.2936e-06
0.000287268
4.63029e-06
0.000284197
3.74885e-06
0.000281566
2.86768e-06
0.000278718
2.20516e-06
0.000275872
1.3244e-06
0.000273247
6.61588e-07
0.000270404
0.000267782
0.000773915
0.00304081
0.000426783
0.00374602
0.00018184
0.00376483
6.02444e-05
0.00353105
1.25265e-05
0.00322472
5.33625e-06
0.00290554
1.74354e-05
0.00260167
3.59299e-05
0.00232689
5.44661e-05
0.00208566
7.0153e-05
0.00187765
8.21731e-05
0.0017001
9.07451e-05
0.00154881
9.65042e-05
0.00141972
9.99395e-05
0.00130926
0.00010167
0.00121421
0.000102012
0.0011321
0.000101403
0.00106074
0.000100112
0.000998496
9.83484e-05
0.000943926
9.62714e-05
0.000895914
9.39353e-05
0.000853541
9.15261e-05
0.000815907
8.90457e-05
0.00078241
8.65713e-05
0.000752479
8.41338e-05
0.000725611
8.17556e-05
0.000701423
7.93967e-05
0.000679569
7.71468e-05
0.000659698
7.49574e-05
0.000641634
7.28555e-05
0.000625082
7.08158e-05
0.000609927
6.88366e-05
0.000595955
6.69645e-05
0.000583002
6.51465e-05
0.000571019
6.3403e-05
0.000559826
6.17063e-05
0.000549378
6.00527e-05
0.000539595
5.84858e-05
0.000530359
5.69547e-05
0.000521632
5.55952e-05
0.000513384
5.40105e-05
0.00050559
5.26832e-05
0.000498047
5.11509e-05
0.000491018
5.00966e-05
0.000484013
4.86066e-05
0.000477687
4.71354e-05
0.000471333
4.59066e-05
0.000465158
4.49157e-05
0.000459141
4.34878e-05
0.000453716
4.25212e-05
0.000447968
4.13405e-05
0.000442557
4.0168e-05
0.00043747
3.90041e-05
0.000432474
3.80697e-05
0.000427336
3.69198e-05
0.000422494
3.57759e-05
0.000417938
3.46375e-05
0.00041322
3.37249e-05
0.000408555
3.25954e-05
0.000404158
3.16905e-05
0.000399584
3.07888e-05
0.00039549
2.989e-05
0.00039121
2.87737e-05
0.000387182
2.788e-05
0.000382962
2.67686e-05
0.000378989
2.5879e-05
0.000375038
2.49912e-05
0.000371109
2.41048e-05
0.0003672
2.30005e-05
0.000363527
2.21169e-05
0.00035965
2.12344e-05
0.000356008
2.03529e-05
0.000352379
1.94723e-05
0.000348761
1.88116e-05
0.000345155
1.79326e-05
0.000341559
1.70544e-05
0.00033841
1.63956e-05
0.000334612
1.55185e-05
0.000331479
1.4642e-05
0.000328133
1.37658e-05
0.000324795
1.28901e-05
0.000321462
1.22333e-05
0.000318134
1.13582e-05
0.000315249
1.04833e-05
0.000311932
1.00458e-05
0.000308618
9.1713e-06
0.000305746
8.51557e-06
0.000302658
7.85999e-06
0.000299574
6.98607e-06
0.000296712
6.33079e-06
0.000293634
5.45716e-06
0.000290777
4.80211e-06
0.000287923
3.92872e-06
0.000285071
3.49228e-06
0.000282002
2.83747e-06
0.000279373
1.96427e-06
0.000276746
1.30953e-06
0.000273901
6.54823e-07
0.000271059
0.000268437
-2.28963e-05
0.00364463
-0.000409778
0.00410981
-0.000529964
0.00391602
-0.000527769
0.0035574
-0.000468447
0.00318622
-0.000388056
0.0028388
-0.000306621
0.00252841
-0.000233368
0.00225822
-0.000171609
0.00202637
-0.000121505
0.00182892
-8.16218e-05
0.00166104
-5.01793e-05
0.00151792
-2.56767e-05
0.00139562
-6.55035e-06
0.00129044
8.24022e-06
0.00119965
1.97282e-05
0.00112078
2.85574e-05
0.00105204
3.53425e-05
0.000991802
4.05221e-05
0.000938811
4.43752e-05
0.000892103
4.72779e-05
0.000850665
4.93732e-05
0.000813827
5.08636e-05
0.000780926
5.1844e-05
0.0007515
5.24491e-05
0.000725003
5.27321e-05
0.000701134
5.28091e-05
0.000679485
5.26502e-05
0.000659848
5.23487e-05
0.000641927
5.19106e-05
0.000625511
5.13854e-05
0.000610443
5.08179e-05
0.000596514
5.01495e-05
0.000583662
4.94425e-05
0.000571718
4.86593e-05
0.000560602
4.78795e-05
0.000550151
4.70628e-05
0.000540406
4.62381e-05
0.000531178
4.53864e-05
0.000522479
4.4581e-05
0.000514185
4.36628e-05
0.000506504
4.27277e-05
0.000498979
4.20063e-05
0.000491736
4.08154e-05
0.000485201
4.00682e-05
0.000478432
3.93096e-05
0.00047209
3.85414e-05
0.000465924
3.75386e-05
0.000460142
3.67527e-05
0.000454499
3.57377e-05
0.000448982
3.47167e-05
0.000443577
3.39127e-05
0.000438273
3.31037e-05
0.000433282
3.22899e-05
0.000428149
3.12501e-05
0.000423533
3.06499e-05
0.000418538
2.98243e-05
0.000414045
2.89954e-05
0.000409383
2.81635e-05
0.00040499
2.71083e-05
0.000400639
2.62712e-05
0.000396327
2.54318e-05
0.000392049
2.48104e-05
0.000387803
2.39668e-05
0.000383806
2.31215e-05
0.000379834
2.24941e-05
0.000375666
2.16454e-05
0.000371958
2.07953e-05
0.000368049
2.01633e-05
0.000364159
1.93106e-05
0.000360503
1.86759e-05
0.000356643
1.7821e-05
0.000353233
1.71842e-05
0.000349398
1.63275e-05
0.000346012
1.54701e-05
0.000342416
1.50497e-05
0.00033883
1.39719e-05
0.00033569
1.33312e-05
0.000332119
1.26899e-05
0.000328775
1.20479e-05
0.000325437
1.14053e-05
0.000322104
1.05436e-05
0.000318996
1.01186e-05
0.000315674
9.4745e-06
0.000312576
8.61145e-06
0.000309481
7.96661e-06
0.00030639
7.32144e-06
0.000303303
6.67598e-06
0.00030022
6.03026e-06
0.000297358
5.3843e-06
0.00029428
4.73813e-06
0.000291423
4.09178e-06
0.000288569
3.66369e-06
0.000285499
2.79858e-06
0.000282868
2.15175e-06
0.00028002
1.72322e-06
0.000277174
1.29456e-06
0.00027433
6.48009e-07
0.000271706
0.000269084
-0.00127608
0.00407516
-0.00148557
0.00427585
-0.00136222
0.00384555
-0.00117555
0.00340375
-0.000977264
0.00301078
-0.000793915
0.0026706
-0.000636144
0.0023802
-0.000505643
0.00213365
-0.000399921
0.00192439
-0.000315212
0.00174669
-0.000247532
0.00159509
-0.000193656
0.0014653
-0.000150478
0.0013534
-0.000115932
0.00125662
-8.80673e-05
0.00117235
-6.55647e-05
0.00109871
-4.72879e-05
0.00103409
-3.24026e-05
0.000977167
-2.02875e-05
0.000926887
-1.03572e-05
0.00088232
-2.19254e-06
0.000842613
4.5369e-06
0.000807184
1.00336e-05
0.000775495
1.46034e-05
0.00074698
1.83274e-05
0.000721318
2.14002e-05
0.00069809
2.39056e-05
0.000677002
2.59603e-05
0.000657811
2.76405e-05
0.000640259
2.8979e-05
0.000624182
3.00531e-05
0.000609376
3.08555e-05
0.000595717
3.14697e-05
0.000583052
3.19252e-05
0.000571266
3.22463e-05
0.000560283
3.24058e-05
0.000549993
3.24933e-05
0.000540319
3.2452e-05
0.000531221
3.23185e-05
0.000522613
3.21282e-05
0.000514376
3.18896e-05
0.000506743
3.15876e-05
0.000499281
3.12295e-05
0.000492094
3.10493e-05
0.000485381
3.05969e-05
0.000478884
3.01055e-05
0.000472581
2.93542e-05
0.000466676
2.8796e-05
0.0004607
2.84336e-05
0.000454861
2.80465e-05
0.00044937
2.74125e-05
0.000444212
2.6757e-05
0.000438928
2.63056e-05
0.000433733
2.56152e-05
0.00042884
2.51313e-05
0.000424017
2.44119e-05
0.000419258
2.39012e-05
0.000414556
2.31581e-05
0.000410126
2.26253e-05
0.000405523
2.18625e-05
0.000401402