/*--------------------------------*- C++ -*----------------------------------*\
  =========                 |
  \\      /  F ield         | OpenFOAM: The Open Source CFD Toolbox
   \\    /   O peration     | Website:  https://openfoam.org
    \\  /    A nd           | Version:  7
     \\/     M anipulation  |
\*---------------------------------------------------------------------------*/
FoamFile
{
    version     2.0;
    format      ascii;
    class       volVectorField;
    location    "1123200.0";
    object      U;
}
// * * * * * * * * * * * * * * * * * * * * * * * * * * * * * * * * * * * * * //

dimensions      [0 1 -1 0 0 0 0];

internalField   nonuniform List<vector> 
5346
(
(7.93011e-05 -0.000296914 -4.52091e-19)
(9.75521e-05 -0.000319303 -1.48233e-17)
(0.000110196 -0.000289088 -1.53254e-17)
(0.000119545 -0.000257916 6.28007e-18)
(0.000125634 -0.000227212 5.41756e-18)
(0.000128626 -0.000198295 -9.86374e-20)
(0.000128839 -0.000172113 -5.1764e-18)
(0.000126809 -0.000149065 2.8136e-18)
(0.000123237 -0.000129138 -4.13629e-18)
(0.000118849 -0.000112078 -6.55078e-18)
(0.000114244 -9.75248e-05 3.09159e-18)
(0.000109823 -8.51058e-05 7.82241e-18)
(0.000105795 -7.44794e-05 2.9229e-18)
(0.000102224 -6.53543e-05 -4.28663e-18)
(9.90977e-05 -5.74895e-05 -1.51447e-18)
(9.63691e-05 -5.0689e-05 -1.34105e-18)
(9.39851e-05 -4.47911e-05 -9.57659e-19)
(9.18977e-05 -3.96623e-05 -5.13756e-19)
(9.00662e-05 -3.51913e-05 -2.31848e-19)
(8.8456e-05 -3.12842e-05 8.59818e-19)
(8.70377e-05 -2.78617e-05 1.99621e-19)
(8.57863e-05 -2.4857e-05 -1.42397e-18)
(8.46801e-05 -2.22135e-05 1.13663e-18)
(8.37007e-05 -1.9883e-05 1.84072e-18)
(8.28322e-05 -1.78244e-05 -2.4622e-19)
(8.20608e-05 -1.60028e-05 -4.77809e-19)
(8.13749e-05 -1.43879e-05 -2.02158e-19)
(8.07638e-05 -1.29538e-05 5.75213e-19)
(8.0219e-05 -1.16782e-05 -1.86505e-19)
(7.97325e-05 -1.05417e-05 -8.15792e-19)
(7.92975e-05 -9.52776e-06 1.66743e-19)
(7.8908e-05 -8.62169e-06 8.61794e-19)
(7.8559e-05 -7.81091e-06 -3.59104e-19)
(7.82457e-05 -7.08445e-06 1.05652e-19)
(7.79642e-05 -6.43275e-06 2.50946e-19)
(7.77111e-05 -5.84739e-06 -2.32342e-19)
(7.74832e-05 -5.32096e-06 3.5416e-19)
(7.72777e-05 -4.84698e-06 8.46033e-20)
(7.70925e-05 -4.41968e-06 -1.12064e-19)
(7.69249e-05 -4.034e-06 -4.69484e-19)
(7.67736e-05 -3.68556e-06 -9.10105e-20)
(7.66366e-05 -3.37043e-06 2.97164e-19)
(7.65126e-05 -3.08516e-06 -4.03545e-20)
(7.64e-05 -2.82664e-06 7.84994e-20)
(7.6298e-05 -2.59215e-06 -1.10116e-19)
(7.62053e-05 -2.37916e-06 -1.16455e-19)
(7.6121e-05 -2.18565e-06 1.47837e-20)
(7.60444e-05 -2.00954e-06 1.47466e-19)
(7.59745e-05 -1.84904e-06 1.22096e-19)
(7.59108e-05 -1.7028e-06 -1.38844e-19)
(7.58527e-05 -1.56942e-06 3.37138e-20)
(7.57997e-05 -1.44763e-06 8.19831e-20)
(7.57513e-05 -1.33632e-06 -7.74709e-21)
(7.5707e-05 -1.23448e-06 -5.713e-20)
(7.56665e-05 -1.14125e-06 -2.07281e-20)
(7.56294e-05 -1.05579e-06 -3.59321e-20)
(7.55955e-05 -9.77367e-07 -4.40577e-20)
(7.55643e-05 -9.05372e-07 7.83821e-20)
(7.55357e-05 -8.39174e-07 6.24614e-20)
(7.55095e-05 -7.78267e-07 1.94258e-20)
(7.54854e-05 -7.2221e-07 -2.95537e-20)
(7.54632e-05 -6.70552e-07 3.67604e-20)
(7.54429e-05 -6.22925e-07 3.45983e-21)
(7.54242e-05 -5.78979e-07 1.52154e-20)
(7.54069e-05 -5.38369e-07 9.83582e-21)
(7.5391e-05 -5.00804e-07 -3.70351e-20)
(7.53764e-05 -4.66025e-07 5.04949e-20)
(7.53629e-05 -4.33785e-07 5.69595e-20)
(7.53505e-05 -4.03849e-07 -1.30502e-20)
(7.53391e-05 -3.7602e-07 5.13673e-21)
(7.53285e-05 -3.50124e-07 -1.41595e-20)
(7.53188e-05 -3.26004e-07 -2.29378e-20)
(7.53098e-05 -3.03508e-07 -4.20837e-21)
(7.53015e-05 -2.82503e-07 -3.42804e-21)
(7.52939e-05 -2.62873e-07 -1.10814e-20)
(7.52869e-05 -2.44509e-07 -1.78637e-20)
(7.52804e-05 -2.27299e-07 1.23977e-20)
(7.52745e-05 -2.1115e-07 1.8413e-24)
(7.5269e-05 -1.95977e-07 0)
(7.5264e-05 -1.81685e-07 1.2951e-21)
(7.52594e-05 -1.68196e-07 -1.22797e-21)
(7.52552e-05 -1.55446e-07 0)
(7.52513e-05 -1.43355e-07 7.41302e-21)
(7.52478e-05 -1.31867e-07 -8.08426e-21)
(7.52446e-05 -1.20929e-07 -7.13747e-21)
(7.52417e-05 -1.1049e-07 1.94824e-20)
(7.52391e-05 -1.00502e-07 -1.14512e-21)
(7.52367e-05 -9.09243e-08 -4.74409e-21)
(7.52346e-05 -8.17201e-08 -3.70723e-21)
(7.52328e-05 -7.28518e-08 -1.37446e-21)
(7.52311e-05 -6.42876e-08 7.93521e-21)
(7.52297e-05 -5.60012e-08 -2.4375e-21)
(7.52285e-05 -4.79623e-08 1.64185e-21)
(7.52275e-05 -4.01467e-08 6.58179e-22)
(7.52266e-05 -3.25241e-08 1.2384e-21)
(7.5226e-05 -2.50705e-08 2.05128e-21)
(7.52255e-05 -1.77685e-08 -3.10277e-21)
(7.52252e-05 -1.05873e-08 1.96483e-21)
(7.5225e-05 -2.33972e-09 2.76053e-22)
(9.65602e-05 -0.00029664 -1.55891e-17)
(0.000117619 -0.000311796 -1.175e-17)
(0.000133907 -0.00028018 -1.51442e-18)
(0.00014557 -0.000249251 7.56235e-18)
(0.000152075 -0.000219226 1.94103e-17)
(0.000153877 -0.000191015 -9.35812e-18)
(0.000151927 -0.000165511 -6.4813e-18)
(0.000147346 -0.000143125 4.88941e-18)
(0.000141228 -0.000123841 -1.85209e-18)
(0.000134495 -0.000107385 7.72672e-18)
(0.000127815 -9.3382e-05 -2.08631e-20)
(0.000121592 -8.1451e-05 -1.16698e-18)
(0.000116013 -7.12528e-05 -5.32247e-18)
(0.000111112 -6.25013e-05 -3.26854e-18)
(0.000106846 -5.49631e-05 2.86305e-18)
(0.000103141 -4.84479e-05 -1.84193e-18)
(9.99185e-05 -4.27996e-05 1.77326e-20)
(9.71101e-05 -3.78895e-05 -4.01429e-20)
(9.46567e-05 -3.36104e-05 3.81042e-19)
(9.25081e-05 -2.98718e-05 2.78618e-18)
(9.06226e-05 -2.65979e-05 1.30268e-18)
(8.89647e-05 -2.37244e-05 7.76762e-20)
(8.75041e-05 -2.11969e-05 4.66441e-19)
(8.62149e-05 -1.89692e-05 -7.63867e-19)
(8.50749e-05 -1.70017e-05 -8.08626e-19)
(8.40652e-05 -1.5261e-05 -1.08297e-20)
(8.31692e-05 -1.37181e-05 2.64967e-19)
(8.2373e-05 -1.23482e-05 6.07794e-19)
(8.16643e-05 -1.11299e-05 -2.34642e-19)
(8.10325e-05 -1.00447e-05 5.99789e-21)
(8.04685e-05 -9.07664e-06 -5.08418e-21)
(7.99644e-05 -8.21181e-06 -5.90965e-19)
(7.95131e-05 -7.43809e-06 3.93035e-19)
(7.91087e-05 -6.74499e-06 2.08329e-19)
(7.87459e-05 -6.12331e-06 -1.94755e-19)
(7.84199e-05 -5.565e-06 1.80333e-19)
(7.81267e-05 -5.06297e-06 4.75984e-20)
(7.78627e-05 -4.61108e-06 1.08552e-19)
(7.76246e-05 -4.20369e-06 -2.28153e-19)
(7.74098e-05 -3.83615e-06 -4.20963e-19)
(7.72157e-05 -3.50415e-06 3.75881e-19)
(7.70403e-05 -3.20391e-06 -1.45742e-19)
(7.68814e-05 -2.93214e-06 -6.88319e-20)
(7.67376e-05 -2.68596e-06 1.85041e-19)
(7.6607e-05 -2.46269e-06 -1.34525e-19)
(7.64886e-05 -2.25995e-06 1.03768e-19)
(7.63809e-05 -2.07571e-06 1.2823e-19)
(7.6283e-05 -1.9081e-06 -8.74541e-20)
(7.61939e-05 -1.75538e-06 -3.16353e-20)
(7.61127e-05 -1.6163e-06 7.4535e-20)
(7.60387e-05 -1.48948e-06 1.25083e-19)
(7.59711e-05 -1.3736e-06 -1.45122e-19)
(7.59095e-05 -1.26775e-06 -1.16855e-19)
(7.58531e-05 -1.17093e-06 1.69274e-19)
(7.58016e-05 -1.08232e-06 1.25764e-19)
(7.57543e-05 -1.0011e-06 -7.97648e-20)
(7.57111e-05 -9.26569e-07 -6.34264e-20)
(7.56715e-05 -8.5818e-07 3.40619e-20)
(7.56352e-05 -7.95315e-07 3.24481e-20)
(7.56018e-05 -7.37481e-07 2.32987e-20)
(7.55712e-05 -6.84262e-07 3.45016e-20)
(7.55431e-05 -6.3523e-07 -1.5997e-20)
(7.55172e-05 -5.90032e-07 -4.14844e-21)
(7.54934e-05 -5.48323e-07 3.21485e-20)
(7.54715e-05 -5.09777e-07 -3.91766e-20)
(7.54514e-05 -4.74134e-07 -2.43534e-20)
(7.54328e-05 -4.41142e-07 7.65277e-21)
(7.54157e-05 -4.10558e-07 1.11644e-20)
(7.54e-05 -3.82176e-07 6.93201e-21)
(7.53854e-05 -3.55796e-07 -2.22887e-20)
(7.5372e-05 -3.31255e-07 -6.04187e-20)
(7.53597e-05 -3.08397e-07 -1.344e-20)
(7.53483e-05 -2.87089e-07 2.62963e-20)
(7.53378e-05 -2.672e-07 2.35768e-21)
(7.53282e-05 -2.48613e-07 -1.62766e-20)
(7.53193e-05 -2.31222e-07 1.55025e-20)
(7.53111e-05 -2.14925e-07 -4.12064e-22)
(7.53036e-05 -1.99636e-07 -1.12575e-20)
(7.52967e-05 -1.85271e-07 2.56268e-20)
(7.52903e-05 -1.71741e-07 1.31362e-21)
(7.52845e-05 -1.58976e-07 -1.73214e-20)
(7.52792e-05 -1.46909e-07 7.50192e-21)
(7.52743e-05 -1.35472e-07 9.66988e-21)
(7.52698e-05 -1.24607e-07 -6.49082e-21)
(7.52658e-05 -1.14264e-07 1.5986e-20)
(7.52621e-05 -1.04394e-07 -3.22609e-22)
(7.52588e-05 -9.49484e-08 -1.34193e-20)
(7.52558e-05 -8.58961e-08 -9.22603e-23)
(7.52532e-05 -7.71962e-08 4.30901e-21)
(7.52508e-05 -6.88158e-08 6.81524e-21)
(7.52487e-05 -6.07254e-08 -9.57125e-22)
(7.52469e-05 -5.28955e-08 -6.07057e-23)
(7.52454e-05 -4.53029e-08 2.94618e-21)
(7.52441e-05 -3.79212e-08 -9.85114e-22)
(7.52431e-05 -3.07215e-08 3.72415e-21)
(7.52422e-05 -2.36853e-08 -1.83418e-21)
(7.52416e-05 -1.67871e-08 1.69196e-21)
(7.52412e-05 -1.00074e-08 -3.21998e-22)
(7.5241e-05 -2.21387e-09 6.08561e-22)
(0.000116985 -0.000291416 -1.36919e-17)
(0.000140223 -0.000302576 -3.7267e-18)
(0.000158167 -0.000268681 2.09248e-17)
(0.000171056 -0.000237048 7.88721e-18)
(0.000177763 -0.000207422 2.45559e-20)
(0.000178525 -0.000180115 1.77255e-18)
(0.000174585 -0.000155676 4.32179e-18)
(0.000167548 -0.00013437 -1.86393e-18)
(0.000158913 -0.000116115 -1.70414e-18)
(0.000149841 -0.000100605 -3.50742e-18)
(0.000141093 -8.74477e-05 -1.32778e-18)
(0.000133084 -7.62593e-05 1.95082e-18)
(0.000125975 -6.67059e-05 -1.00732e-18)
(0.000119767 -5.85122e-05 1.80443e-18)
(0.000114384 -5.14562e-05 -2.70759e-18)
(0.000109723 -4.53583e-05 -1.85569e-18)
(0.000105681 -4.00718e-05 2.86452e-18)
(0.000102169 -3.54762e-05 0)
(9.91082e-05 -3.14706e-05 2.26712e-18)
(9.64351e-05 -2.79705e-05 2.36499e-18)
(9.40948e-05 -2.4905e-05 1.02969e-18)
(9.20416e-05 -2.22142e-05 -1.26445e-18)
(9.02364e-05 -1.98471e-05 -8.19061e-19)
(8.86459e-05 -1.77605e-05 2.56185e-19)
(8.72421e-05 -1.59176e-05 6.90118e-19)
(8.60006e-05 -1.42868e-05 -1.05468e-18)
(8.49007e-05 -1.28414e-05 -3.81436e-19)
(8.39246e-05 -1.15579e-05 4.77636e-19)
(8.3057e-05 -1.04164e-05 3.05339e-21)
(8.22845e-05 -9.39971e-06 7.00124e-19)
(8.15957e-05 -8.49273e-06 -2.38282e-19)
(8.09807e-05 -7.68247e-06 -2.45439e-20)
(8.04307e-05 -6.95763e-06 8.77677e-22)
(7.99382e-05 -6.30837e-06 2.00076e-19)
(7.94967e-05 -5.72604e-06 1.81152e-19)
(7.91003e-05 -5.20311e-06 6.99237e-20)
(7.87441e-05 -4.73294e-06 2.17809e-19)
(7.84236e-05 -4.30974e-06 -3.43854e-19)
(7.81347e-05 -3.92834e-06 -2.27583e-19)
(7.78744e-05 -3.58423e-06 4.0535e-19)
(7.76391e-05 -3.27342e-06 -2.81638e-20)
(7.74266e-05 -2.99246e-06 -9.92339e-20)
(7.72343e-05 -2.73812e-06 1.63823e-19)
(7.70602e-05 -2.50772e-06 -2.07554e-19)
(7.69024e-05 -2.29885e-06 2.96969e-21)
(7.67591e-05 -2.10921e-06 2.38229e-20)
(7.6629e-05 -1.93689e-06 -1.37398e-19)
(7.65107e-05 -1.78016e-06 6.46803e-20)
(7.64031e-05 -1.63736e-06 -4.13542e-20)
(7.6305e-05 -1.50735e-06 2.03854e-20)
(7.62158e-05 -1.38887e-06 1.89606e-19)
(7.61343e-05 -1.28057e-06 -1.14478e-19)
(7.60599e-05 -1.18167e-06 -4.43859e-20)
(7.5992e-05 -1.09124e-06 5.35452e-20)
(7.59299e-05 -1.00847e-06 -2.32921e-20)
(7.58729e-05 -9.32611e-07 -5.5843e-20)
(7.58209e-05 -8.63038e-07 -3.3566e-21)
(7.57732e-05 -7.99195e-07 1.34213e-20)
(7.57294e-05 -7.40518e-07 2.08534e-20)
(7.56893e-05 -6.86571e-07 2.01754e-20)
(7.56525e-05 -6.3693e-07 4.48816e-20)
(7.56186e-05 -5.9119e-07 -5.90934e-20)
(7.55875e-05 -5.49035e-07 7.16486e-21)
(7.55589e-05 -5.10142e-07 2.5243e-20)
(7.55326e-05 -4.74208e-07 -7.73965e-20)
(7.55084e-05 -4.40979e-07 -1.80537e-20)
(7.54861e-05 -4.10222e-07 1.73017e-20)
(7.54656e-05 -3.81721e-07 -3.7844e-20)
(7.54466e-05 -3.55279e-07 -1.96288e-20)
(7.54292e-05 -3.30717e-07 4.11156e-20)
(7.54131e-05 -3.07862e-07 1.32353e-20)
(7.53983e-05 -2.86583e-07 -6.17557e-21)
(7.53847e-05 -2.66752e-07 1.82771e-20)
(7.53721e-05 -2.48242e-07 -2.05096e-20)
(7.53605e-05 -2.30952e-07 4.23096e-22)
(7.53498e-05 -2.14773e-07 9.90179e-21)
(7.534e-05 -1.99616e-07 -2.15161e-20)
(7.5331e-05 -1.85399e-07 -8.89719e-21)
(7.53227e-05 -1.72036e-07 1.70036e-20)
(7.53151e-05 -1.59454e-07 -6.26905e-21)
(7.53081e-05 -1.47586e-07 -7.1438e-21)
(7.53017e-05 -1.36369e-07 2.24764e-20)
(7.52958e-05 -1.25741e-07 4.5118e-21)
(7.52905e-05 -1.15648e-07 -3.10908e-21)
(7.52856e-05 -1.0604e-07 -2.59106e-21)
(7.52812e-05 -9.68744e-08 -1.96008e-20)
(7.52773e-05 -8.81059e-08 1.50757e-21)
(7.52737e-05 -7.96973e-08 7.16571e-21)
(7.52705e-05 -7.1622e-08 7.73391e-21)
(7.52677e-05 -6.38437e-08 -1.08932e-20)
(7.52652e-05 -5.63344e-08 -4.16346e-21)
(7.52631e-05 -4.90705e-08 4.6027e-21)
(7.52612e-05 -4.20246e-08 -4.74329e-21)
(7.52597e-05 -3.51748e-08 -1.27967e-21)
(7.52584e-05 -2.84972e-08 -9.86686e-23)
(7.52574e-05 -2.19706e-08 -2.28264e-21)
(7.52567e-05 -1.55728e-08 -3.97163e-23)
(7.52562e-05 -9.28424e-09 1.0676e-21)
(7.5256e-05 -2.05355e-09 2.30037e-21)
(0.00013774 -0.000281096 1.91795e-18)
(0.000164629 -0.000290118 4.80316e-18)
(0.000183865 -0.000254329 -3.14694e-18)
(0.000196992 -0.000221577 -5.93881e-18)
(0.00020314 -0.000191994 -4.47878e-20)
(0.000202526 -0.000165588 2.99244e-18)
(0.000196528 -0.000142487 -2.83652e-18)
(0.000187062 -0.000122649 -8.51742e-18)
(0.000175956 -0.000105825 4.47905e-19)
(0.000164589 -9.1627e-05 2.61937e-18)
(0.000153821 -7.96345e-05 -3.68685e-18)
(0.000144076 -6.94611e-05 -1.76398e-18)
(0.000135489 -6.07833e-05 -1.27294e-18)
(0.000128024 -5.33423e-05 -1.4064e-18)
(0.00012157 -4.69331e-05 -1.23187e-18)
(0.000115994 -4.13914e-05 4.73165e-18)
(0.00011117 -3.65847e-05 2.17064e-19)
(0.000106984 -3.24033e-05 -6.30093e-19)
(0.000103344 -2.87562e-05 9.99297e-19)
(0.00010017 -2.55674e-05 -2.17468e-19)
(9.7396e-05 -2.27727e-05 -1.50665e-18)
(9.49658e-05 -2.03179e-05 1.65783e-19)
(9.28321e-05 -1.81572e-05 -1.20442e-18)
(9.09547e-05 -1.62515e-05 -1.06566e-18)
(8.92995e-05 -1.45676e-05 5.52993e-19)
(8.78373e-05 -1.30768e-05 3.81724e-19)
(8.65433e-05 -1.17549e-05 1.47946e-18)
(8.5396e-05 -1.05806e-05 -2.0536e-19)
(8.43771e-05 -9.53606e-06 -2.13537e-19)
(8.34708e-05 -8.60537e-06 -3.67715e-19)
(8.26632e-05 -7.77491e-06 -2.73456e-19)
(8.19426e-05 -7.0329e-06 -7.98644e-21)
(8.12988e-05 -6.36902e-06 -2.20103e-19)
(8.07226e-05 -5.77427e-06 1.76428e-19)
(8.02063e-05 -5.2408e-06 2.9425e-21)
(7.97432e-05 -4.76172e-06 1.38541e-19)
(7.93271e-05 -4.33097e-06 -2.85355e-19)
(7.89529e-05 -3.9432e-06 -3.88976e-19)
(7.8616e-05 -3.59378e-06 2.40514e-19)
(7.83121e-05 -3.27848e-06 5.43515e-20)
(7.80381e-05 -2.99383e-06 -1.49946e-21)
(7.77904e-05 -2.73644e-06 -4.78054e-20)
(7.75664e-05 -2.50346e-06 -2.13341e-19)
(7.73637e-05 -2.29244e-06 -3.64678e-20)
(7.71799e-05 -2.10113e-06 1.0724e-19)
(7.70133e-05 -1.92749e-06 1.31425e-19)
(7.6862e-05 -1.76969e-06 9.11763e-20)
(7.67244e-05 -1.62622e-06 7.84846e-20)
(7.65993e-05 -1.49545e-06 2.39056e-20)
(7.64854e-05 -1.37648e-06 1.45551e-20)
(7.63817e-05 -1.2681e-06 2.0883e-20)
(7.62871e-05 -1.169e-06 6.70689e-21)
(7.62007e-05 -1.07853e-06 7.01652e-23)
(7.61219e-05 -9.95825e-07 -2.29782e-20)
(7.60498e-05 -9.20106e-07 -6.43419e-20)
(7.59838e-05 -8.50748e-07 1.01571e-19)
(7.59234e-05 -7.87148e-07 5.20524e-20)
(7.58681e-05 -7.28775e-07 -6.33635e-20)
(7.58174e-05 -6.75147e-07 6.41993e-20)
(7.57709e-05 -6.25866e-07 2.50764e-20)
(7.57282e-05 -5.80518e-07 -6.32302e-20)
(7.5689e-05 -5.38739e-07 7.88346e-21)
(7.5653e-05 -5.00239e-07 4.04318e-20)
(7.56199e-05 -4.64725e-07 -6.5265e-20)
(7.55894e-05 -4.31913e-07 6.29765e-21)
(7.55614e-05 -4.01584e-07 5.16446e-20)
(7.55356e-05 -3.73515e-07 -1.09285e-20)
(7.55118e-05 -3.4751e-07 5.33802e-21)
(7.54899e-05 -3.23391e-07 1.41443e-20)
(7.54698e-05 -3.00982e-07 4.35986e-21)
(7.54512e-05 -2.80147e-07 -2.49513e-20)
(7.5434e-05 -2.6075e-07 1.60154e-20)
(7.54183e-05 -2.42672e-07 7.26991e-21)
(7.54037e-05 -2.25809e-07 -2.42827e-20)
(7.53903e-05 -2.10056e-07 -1.34804e-20)
(7.5378e-05 -1.95314e-07 -2.72371e-21)
(7.53667e-05 -1.81515e-07 2.57433e-21)
(7.53562e-05 -1.68567e-07 5.3264e-21)
(7.53466e-05 -1.56397e-07 -2.59118e-21)
(7.53378e-05 -1.44946e-07 2.44838e-21)
(7.53298e-05 -1.34147e-07 1.76948e-20)
(7.53224e-05 -1.23936e-07 -1.28146e-22)
(7.53156e-05 -1.14264e-07 -1.55101e-20)
(7.53095e-05 -1.05086e-07 1.09825e-20)
(7.53039e-05 -9.63467e-08 -2.39008e-21)
(7.52988e-05 -8.80101e-08 -4.46367e-21)
(7.52942e-05 -8.00379e-08 1.54326e-21)
(7.52901e-05 -7.23955e-08 -6.85239e-22)
(7.52864e-05 -6.50564e-08 -2.02321e-21)
(7.52832e-05 -5.79873e-08 -1.38659e-21)
(7.52803e-05 -5.11639e-08 -5.90335e-23)
(7.52778e-05 -4.45655e-08 -3.81003e-21)
(7.52757e-05 -3.81644e-08 -2.65365e-21)
(7.52739e-05 -3.1942e-08 4.94627e-21)
(7.52724e-05 -2.58779e-08 3.89548e-22)
(7.52713e-05 -1.99517e-08 1.24105e-21)
(7.52705e-05 -1.41426e-08 -1.6126e-21)
(7.52699e-05 -8.43048e-09 -1.47267e-23)
(7.52696e-05 -1.86387e-09 -3.67211e-21)
(0.0001576 -0.000265846 -8.60302e-18)
(0.000189934 -0.000273168 -3.25838e-18)
(0.000210919 -0.000235904 -5.59408e-18)
(0.000223772 -0.000202197 7.66364e-18)
(0.000228557 -0.0001727 1.61653e-17)
(0.000225937 -0.000147341 -1.91487e-19)
(0.000217554 -0.000125881 -9.47265e-18)
(0.000205562 -0.00010791 3.07647e-18)
(0.000192006 -9.29302e-05 -2.69728e-18)
(0.000178415 -8.04257e-05 -1.09922e-17)
(0.000165712 -6.99291e-05 -2.23661e-18)
(0.000154323 -6.1051e-05 3.25855e-18)
(0.000144345 -5.34849e-05 2.65246e-20)
(0.000135704 -4.69945e-05 2.52536e-18)
(0.000128251 -4.13983e-05 3.39269e-18)
(0.000121824 -3.65533e-05 -9.5712e-19)
(0.000116271 -3.23443e-05 -2.56043e-18)
(0.00011146 -2.86772e-05 -1.24413e-21)
(0.000107281 -2.5474e-05 7.3913e-19)
(0.000103642 -2.26688e-05 5.90596e-19)
(0.000100464 -2.02068e-05 5.46914e-19)
(9.76836e-05 -1.80412e-05 -4.39092e-19)
(9.52445e-05 -1.61327e-05 -2.60129e-18)
(9.31002e-05 -1.44473e-05 7.45776e-19)
(9.12112e-05 -1.29564e-05 1.43689e-18)
(8.95438e-05 -1.16353e-05 -6.02294e-21)
(8.80691e-05 -1.04627e-05 -1.17869e-18)
(8.67625e-05 -9.42032e-06 -4.48601e-19)
(8.56028e-05 -8.49233e-06 5.01786e-19)
(8.45718e-05 -7.66495e-06 -8.33253e-19)
(8.36537e-05 -6.92632e-06 1.24344e-19)
(8.28349e-05 -6.26602e-06 -3.4562e-19)
(8.21036e-05 -5.67497e-06 2.71845e-19)
(8.14495e-05 -5.14529e-06 2.43253e-19)
(8.08637e-05 -4.67004e-06 1.69949e-19)
(8.03384e-05 -4.24311e-06 5.27295e-21)
(7.98666e-05 -3.85916e-06 -5.38436e-20)
(7.94425e-05 -3.51349e-06 1.59878e-19)
(7.90608e-05 -3.20191e-06 -1.44578e-19)
(7.87168e-05 -2.92085e-06 3.30652e-20)
(7.84065e-05 -2.66697e-06 3.17688e-20)
(7.81262e-05 -2.43739e-06 -1.63498e-21)
(7.78728e-05 -2.22967e-06 2.07973e-20)
(7.76435e-05 -2.04147e-06 1.31142e-19)
(7.74357e-05 -1.87083e-06 2.76828e-19)
(7.72474e-05 -1.71599e-06 3.26195e-20)
(7.70764e-05 -1.57528e-06 -8.61469e-20)
(7.6921e-05 -1.44735e-06 5.03344e-20)
(7.67798e-05 -1.33071e-06 -4.76976e-20)
(7.66512e-05 -1.22465e-06 2.50568e-20)
(7.65341e-05 -1.12812e-06 -4.20684e-20)
(7.64273e-05 -1.03977e-06 -5.37472e-20)
(7.63299e-05 -9.59128e-07 3.79363e-20)
(7.6241e-05 -8.85415e-07 1.33996e-19)
(7.61597e-05 -8.17943e-07 -4.85143e-20)
(7.60853e-05 -7.56145e-07 1.60233e-20)
(7.60173e-05 -6.99502e-07 -1.06096e-22)
(7.59549e-05 -6.47514e-07 -1.39403e-24)
(7.58978e-05 -5.99781e-07 -2.42011e-20)
(7.58454e-05 -5.55903e-07 3.37196e-20)
(7.57974e-05 -5.15536e-07 8.97105e-21)
(7.57532e-05 -4.78362e-07 -2.08687e-20)
(7.57127e-05 -4.44102e-07 1.02814e-20)
(7.56754e-05 -4.12492e-07 1.5108e-20)
(7.56412e-05 -3.83314e-07 1.66892e-20)
(7.56096e-05 -3.56334e-07 3.01628e-20)
(7.55806e-05 -3.31371e-07 -2.06178e-20)
(7.55539e-05 -3.08258e-07 -4.61745e-20)
(7.55292e-05 -2.86813e-07 -1.22498e-20)
(7.55066e-05 -2.66899e-07 -5.1695e-21)
(7.54857e-05 -2.4839e-07 1.14956e-20)
(7.54664e-05 -2.31161e-07 1.01694e-20)
(7.54487e-05 -2.15106e-07 -1.37526e-20)
(7.54324e-05 -2.00135e-07 5.60585e-21)
(7.54173e-05 -1.86147e-07 3.33625e-21)
(7.54035e-05 -1.73065e-07 6.74607e-21)
(7.53908e-05 -1.60815e-07 7.58269e-21)
(7.5379e-05 -1.49322e-07 -1.59699e-20)
(7.53683e-05 -1.3853e-07 1.27028e-20)
(7.53584e-05 -1.28375e-07 2.37647e-20)
(7.53493e-05 -1.18797e-07 -1.17866e-20)
(7.5341e-05 -1.09743e-07 -1.00747e-20)
(7.53335e-05 -1.01173e-07 7.37218e-21)
(7.53265e-05 -9.3035e-08 -3.40281e-21)
(7.53203e-05 -8.52909e-08 -2.16679e-21)
(7.53146e-05 -7.79053e-08 1.18599e-20)
(7.53094e-05 -7.08425e-08 5.69824e-21)
(7.53048e-05 -6.40721e-08 8.48802e-21)
(7.53007e-05 -5.7572e-08 2.5712e-22)
(7.5297e-05 -5.13133e-08 -1.00068e-20)
(7.52938e-05 -4.52722e-08 -8.22039e-22)
(7.5291e-05 -3.94298e-08 6.74549e-21)
(7.52887e-05 -3.37665e-08 3.39003e-21)
(7.52867e-05 -2.82602e-08 4.47548e-21)
(7.5285e-05 -2.2895e-08 0)
(7.52837e-05 -1.76521e-08 1.76025e-21)
(7.52828e-05 -1.25112e-08 -7.13958e-22)
(7.52822e-05 -7.45805e-09 -3.1302e-21)
(7.52819e-05 -1.64913e-09 -4.07922e-21)
(0.000176222 -0.000245849 1.13414e-17)
(0.000215843 -0.000250994 9.51563e-18)
(0.000239101 -0.000212226 9.65689e-20)
(0.000251318 -0.000177911 4.13762e-18)
(0.000253977 -0.000148939 -1.44994e-18)
(0.000248627 -0.000125087 -2.33789e-17)
(0.000237394 -0.000105746 1.10712e-18)
(0.000222685 -9.01227e-05 2.66119e-18)
(0.000206675 -7.74376e-05 -8.78471e-18)
(0.000190955 -6.70251e-05 4.40914e-18)
(0.00017645 -5.83644e-05 1.38277e-17)
(0.000163553 -5.10654e-05 1.25481e-18)
(0.000152314 -4.48465e-05 -1.74096e-18)
(0.000142612 -3.95031e-05 -2.04953e-18)
(0.000134262 -3.48838e-05 -2.24615e-18)
(0.000127071 -3.08725e-05 -3.45754e-18)
(0.000120864 -2.73769e-05 -1.65614e-20)
(0.000115492 -2.43218e-05 -4.1715e-19)
(0.00011083 -2.16447e-05 3.52696e-18)
(0.000106774 -1.92934e-05 1.03252e-18)
(0.000103234 -1.7224e-05 -8.25841e-19)
(0.000100138 -1.5399e-05 -1.81095e-18)
(9.74241e-05 -1.37867e-05 1.34224e-18)
(9.50394e-05 -1.23597e-05 1.04705e-18)
(9.29396e-05 -1.10948e-05 3.64264e-19)
(9.10869e-05 -9.97183e-06 -2.84373e-19)
(8.9449e-05 -8.97343e-06 -2.85221e-20)
(8.79984e-05 -8.08461e-06 2.35032e-19)
(8.67114e-05 -7.29222e-06 -6.71367e-19)
(8.55675e-05 -6.58489e-06 8.31968e-21)
(8.45493e-05 -5.95271e-06 -1.23317e-20)
(8.36416e-05 -5.38705e-06 3.22569e-21)
(8.28311e-05 -4.88031e-06 2.95228e-19)
(8.21064e-05 -4.42582e-06 1.42253e-20)
(8.14575e-05 -4.01776e-06 2.45287e-19)
(8.08758e-05 -3.65099e-06 -3.47544e-19)
(8.03536e-05 -3.32098e-06 2.25216e-21)
(7.98843e-05 -3.02374e-06 -2.18994e-20)
(7.9462e-05 -2.75573e-06 9.6912e-20)
(7.90814e-05 -2.51385e-06 8.8335e-20)
(7.87383e-05 -2.29532e-06 -8.4572e-21)
(7.84285e-05 -2.09769e-06 8.16962e-20)
(7.81485e-05 -1.91888e-06 1.18638e-19)
(7.78951e-05 -1.75677e-06 -1.45443e-22)
(7.76657e-05 -1.6098e-06 -5.65905e-20)
(7.74576e-05 -1.47641e-06 -1.84627e-19)
(7.72689e-05 -1.35523e-06 9.33511e-22)
(7.70974e-05 -1.24506e-06 -2.33469e-20)
(7.69415e-05 -1.14455e-06 1.09253e-20)
(7.67996e-05 -1.05318e-06 -3.95573e-20)
(7.66705e-05 -9.70073e-07 7.35001e-20)
(7.65527e-05 -8.93969e-07 3.07399e-20)
(7.64454e-05 -8.24529e-07 -2.76145e-20)
(7.63473e-05 -7.61035e-07 -7.79077e-20)
(7.62577e-05 -7.02928e-07 -5.29115e-20)
(7.61758e-05 -6.49737e-07 4.96854e-20)
(7.61009e-05 -6.00962e-07 -7.77695e-20)
(7.60323e-05 -5.56221e-07 -6.30955e-20)
(7.59694e-05 -5.15139e-07 4.88618e-20)
(7.59117e-05 -4.77373e-07 6.16107e-20)
(7.58588e-05 -4.42633e-07 -5.80901e-20)
(7.58103e-05 -4.1065e-07 -1.63261e-20)
(7.57657e-05 -3.81175e-07 5.01187e-20)
(7.57247e-05 -3.53997e-07 -2.15989e-20)
(7.5687e-05 -3.28905e-07 1.06398e-20)
(7.56523e-05 -3.05705e-07 -2.0651e-21)
(7.56204e-05 -2.84247e-07 -3.80801e-20)
(7.5591e-05 -2.64378e-07 1.81801e-20)
(7.5564e-05 -2.45944e-07 2.22131e-20)
(7.55391e-05 -2.28833e-07 2.06839e-22)
(7.55161e-05 -2.12937e-07 4.88373e-21)
(7.5495e-05 -1.98141e-07 -9.30397e-21)
(7.54755e-05 -1.84356e-07 4.25409e-21)
(7.54576e-05 -1.71499e-07 4.2971e-21)
(7.54411e-05 -1.59494e-07 3.4798e-21)
(7.54259e-05 -1.48266e-07 -3.41677e-21)
(7.54119e-05 -1.37755e-07 -3.27612e-21)
(7.5399e-05 -1.27897e-07 5.85937e-21)
(7.53872e-05 -1.18641e-07 5.90001e-21)
(7.53764e-05 -1.09932e-07 -1.07474e-20)
(7.53664e-05 -1.01717e-07 -1.8134e-20)
(7.53574e-05 -9.39589e-08 9.93403e-21)
(7.5349e-05 -8.66125e-08 1.54693e-20)
(7.53415e-05 -7.9637e-08 5.80249e-21)
(7.53346e-05 -7.30028e-08 2.09066e-21)
(7.53283e-05 -6.66757e-08 -1.04231e-20)
(7.53227e-05 -6.06243e-08 -3.08395e-21)
(7.53176e-05 -5.4825e-08 3.88403e-21)
(7.53131e-05 -4.9259e-08 -1.17377e-20)
(7.53091e-05 -4.39012e-08 -2.20545e-21)
(7.53056e-05 -3.8728e-08 1.01224e-20)
(7.53026e-05 -3.37282e-08 -1.92037e-21)
(7.52999e-05 -2.88819e-08 -1.5622e-21)
(7.52977e-05 -2.41711e-08 -1.83265e-21)
(7.5296e-05 -1.95824e-08 3.79187e-21)
(7.52945e-05 -1.5097e-08 -3.08092e-21)
(7.52935e-05 -1.07007e-08 -3.33931e-21)
(7.52928e-05 -6.38071e-09 3.57036e-22)
(7.52925e-05 -1.41146e-09 1.29869e-21)
(0.000193572 -0.000220915 3.7285e-18)
(0.00024232 -0.000222647 -5.14607e-18)
(0.000268204 -0.00018206 -1.38528e-17)
(0.000279295 -0.000147645 -4.10053e-18)
(0.000279014 -0.00012 -1.94173e-17)
(0.000270175 -9.84622e-05 5.66643e-18)
(0.000255595 -8.19571e-05 -1.35771e-18)
(0.000237965 -6.92921e-05 -7.64669e-20)
(0.000219521 -5.94135e-05 5.71405e-18)
(0.000201811 -5.15146e-05 1.3096e-17)
(0.00018569 -4.50318e-05 2.59775e-18)
(0.000171474 -3.95914e-05 -1.09076e-17)
(0.000159149 -3.49482e-05 -1.75664e-18)
(0.000148542 -3.09399e-05 -2.63737e-18)
(0.000139428 -2.74535e-05 -1.50736e-18)
(0.000131587 -2.44057e-05 1.97807e-18)
(0.000124825 -2.1732e-05 5.86252e-19)
(0.000118976 -1.93799e-05 1.55653e-18)
(0.000113902 -1.73062e-05 1.78942e-18)
(0.000109488 -1.54742e-05 -1.19194e-18)
(0.000105638 -1.38531e-05 -3.76655e-19)
(0.000102271 -1.24164e-05 1.88361e-18)
(9.93204e-05 -1.11413e-05 9.31435e-19)
(9.67282e-05 -1.00081e-05 2.04046e-19)
(9.44461e-05 -8.99986e-06 1.58868e-18)
(9.24329e-05 -8.10167e-06 -1.05613e-19)
(9.06534e-05 -7.30069e-06 -3.078e-19)
(8.90776e-05 -6.58559e-06 2.96501e-19)
(8.76797e-05 -5.94651e-06 3.53095e-19)
(8.64375e-05 -5.37479e-06 -3.29086e-19)
(8.5332e-05 -4.86283e-06 6.95345e-20)
(8.43465e-05 -4.40389e-06 7.73787e-19)
(8.34667e-05 -3.9921e-06 -5.84443e-19)
(8.26803e-05 -3.62228e-06 3.0666e-19)
(8.19762e-05 -3.28984e-06 -1.70519e-19)
(8.13452e-05 -2.99069e-06 -1.16926e-19)
(8.07788e-05 -2.72127e-06 1.50948e-19)
(8.02698e-05 -2.47838e-06 -1.98812e-19)
(7.98118e-05 -2.2592e-06 -4.45892e-20)
(7.93995e-05 -2.06131e-06 -1.57498e-19)
(7.90274e-05 -1.88235e-06 2.05987e-19)
(7.86919e-05 -1.72054e-06 1.30469e-21)
(7.83884e-05 -1.57393e-06 -1.20322e-19)
(7.8114e-05 -1.44107e-06 -1.5696e-19)
(7.78655e-05 -1.32053e-06 -5.2032e-20)
(7.76403e-05 -1.21109e-06 -8.44122e-22)
(7.7436e-05 -1.11168e-06 -3.88348e-20)
(7.72504e-05 -1.02127e-06 -3.69663e-20)
(7.70817e-05 -9.38741e-07 3.41548e-20)
(7.69283e-05 -8.63772e-07 -3.04749e-20)
(7.67886e-05 -7.95591e-07 -5.76548e-20)
(7.66613e-05 -7.33118e-07 -1.02032e-19)
(7.65452e-05 -6.76089e-07 -2.40064e-20)
(7.64392e-05 -6.23956e-07 -6.86144e-20)
(7.63424e-05 -5.76271e-07 4.3212e-22)
(7.62539e-05 -5.32598e-07 -3.50132e-22)
(7.61729e-05 -4.92551e-07 -3.82438e-20)
(7.60988e-05 -4.55828e-07 3.37177e-20)
(7.60309e-05 -4.22107e-07 8.09687e-20)
(7.59687e-05 -3.91109e-07 -2.64365e-20)
(7.59116e-05 -3.62597e-07 -4.08755e-20)
(7.58592e-05 -3.36357e-07 4.96536e-20)
(7.58111e-05 -3.12177e-07 5.24141e-21)
(7.57669e-05 -2.89873e-07 2.84595e-21)
(7.57262e-05 -2.69284e-07 2.74604e-21)
(7.56888e-05 -2.50256e-07 -3.95498e-20)
(7.56544e-05 -2.32659e-07 3.49671e-20)
(7.56228e-05 -2.16363e-07 2.28009e-20)
(7.55936e-05 -2.01249e-07 -1.76096e-20)
(7.55668e-05 -1.87228e-07 -2.26499e-21)
(7.55421e-05 -1.74196e-07 -7.83442e-21)
(7.55193e-05 -1.62068e-07 7.53234e-21)
(7.54983e-05 -1.50774e-07 1.35872e-20)
(7.5479e-05 -1.40244e-07 -6.51867e-21)
(7.54612e-05 -1.30408e-07 -4.06138e-21)
(7.54449e-05 -1.21215e-07 -1.18864e-20)
(7.54298e-05 -1.12608e-07 -3.2988e-21)
(7.5416e-05 -1.04542e-07 -3.3468e-21)
(7.54033e-05 -9.69654e-08 4.33163e-21)
(7.53916e-05 -8.98391e-08 -9.02009e-21)
(7.53809e-05 -8.31184e-08 3.24941e-21)
(7.53711e-05 -7.67726e-08 1.39953e-20)
(7.53622e-05 -7.07645e-08 -4.50219e-21)
(7.5354e-05 -6.50592e-08 -6.58936e-21)
(7.53466e-05 -5.96335e-08 -7.00035e-21)
(7.53399e-05 -5.44591e-08 -3.95976e-21)
(7.53338e-05 -4.95111e-08 6.92339e-21)
(7.53284e-05 -4.47721e-08 2.02564e-21)
(7.53235e-05 -4.0221e-08 -3.92509e-21)
(7.53192e-05 -3.58415e-08 7.62761e-21)
(7.53155e-05 -3.16159e-08 -3.54977e-21)
(7.53122e-05 -2.75329e-08 -1.78984e-21)
(7.53094e-05 -2.35735e-08 4.29024e-22)
(7.5307e-05 -1.97275e-08 5.55329e-22)
(7.53051e-05 -1.59825e-08 1.60872e-21)
(7.53036e-05 -1.23211e-08 -3.70053e-21)
(7.53025e-05 -8.73358e-09 -2.18675e-21)
(7.53017e-05 -5.20944e-09 3.43887e-21)
(7.53014e-05 -1.15297e-09 3.04596e-21)
(0.000210281 -0.000190915 8.82598e-18)
(0.000270526 -0.000187475 -4.46609e-18)
(0.000298505 -0.000144286 -6.61116e-18)
(0.000307289 -0.000110418 3.94681e-18)
(0.000302967 -8.52467e-05 -4.16343e-18)
(0.000289839 -6.71732e-05 9.88425e-18)
(0.000271472 -5.44702e-05 1.1105e-19)
(0.000250802 -4.55156e-05 -2.39769e-18)
(0.000230025 -3.90145e-05 3.98913e-18)
(0.000210546 -3.40644e-05 -3.44194e-18)
(0.000193068 -3.00973e-05 -1.1075e-17)
(0.000177787 -2.678e-05 4.92437e-20)
(0.000164602 -2.39243e-05 7.16056e-18)
(0.000153286 -2.14224e-05 3.8051e-18)
(0.000143576 -1.92091e-05 1.49447e-18)
(0.000135228 -1.72408e-05 1.85587e-18)
(0.00012803 -1.54854e-05 4.25781e-19)
(0.000121805 -1.39173e-05 1.81773e-18)
(0.000116405 -1.2515e-05 -6.12129e-19)
(0.000111707 -1.12601e-05 -5.35805e-19)
(0.000107609 -1.01365e-05 -7.3971e-19)
(0.000104025 -9.13024e-06 -6.52265e-19)
(0.000100884 -8.22863e-06 -1.14903e-18)
(9.81233e-05 -7.42058e-06 1.43884e-18)
(9.5693e-05 -6.69612e-06 -4.60655e-19)
(9.35487e-05 -6.04637e-06 -3.42557e-19)
(9.16531e-05 -5.46338e-06 8.72503e-19)
(8.99745e-05 -4.94013e-06 6.30067e-19)
(8.84852e-05 -4.47023e-06 1.68535e-19)
(8.71617e-05 -4.04806e-06 -1.25029e-19)
(8.59838e-05 -3.66854e-06 1.00439e-18)
(8.49338e-05 -3.32719e-06 -3.07455e-19)
(8.39966e-05 -3.01998e-06 -4.50269e-19)
(8.31587e-05 -2.74335e-06 6.5581e-19)
(8.24086e-05 -2.49405e-06 -2.25168e-19)
(8.17364e-05 -2.26926e-06 -1.43721e-19)
(8.11331e-05 -2.06642e-06 -6.46789e-20)
(8.0591e-05 -1.88324e-06 -1.51617e-19)
(8.01033e-05 -1.71772e-06 -4.08333e-20)
(7.96641e-05 -1.56801e-06 2.78004e-19)
(7.92682e-05 -1.43257e-06 -3.2878e-20)
(7.89108e-05 -1.30983e-06 -1.59037e-19)
(7.85879e-05 -1.19865e-06 -1.69099e-19)
(7.82958e-05 -1.09776e-06 1.17036e-19)
(7.80314e-05 -1.00616e-06 1.41327e-19)
(7.77918e-05 -9.22955e-07 -6.20734e-22)
(7.75744e-05 -8.47287e-07 1.43902e-20)
(7.73771e-05 -7.78517e-07 2.79049e-20)
(7.71978e-05 -7.15616e-07 -2.65108e-20)
(7.70347e-05 -6.58516e-07 -1.04365e-19)
(7.68862e-05 -6.06621e-07 -2.97111e-20)
(7.67509e-05 -5.58966e-07 2.04205e-20)
(7.66275e-05 -5.1549e-07 -2.52219e-20)
(7.65149e-05 -4.75742e-07 2.81785e-20)
(7.64121e-05 -4.39369e-07 3.83659e-20)