# Residuals   
# Time        	p             	Ux            	Uy            
0.01          	1.000000e+00	1.000000e+00	0.000000e+00
0.02          	6.489983e-01	2.331775e-01	1.031430e-01
0.03          	6.229676e-01	2.059883e-01	5.366053e-02
0.04          	6.433642e-01	1.523780e-01	4.080198e-02
0.05          	6.210415e-01	1.188134e-01	2.962636e-02
0.06          	6.350347e-01	8.987011e-02	2.360920e-02
0.07          	6.165287e-01	7.234907e-02	2.114132e-02
0.08          	6.085009e-01	6.012463e-02	1.939409e-02
0.09          	5.777282e-01	5.122563e-02	1.792703e-02
0.1           	5.860611e-01	4.404097e-02	1.647961e-02
0.11          	5.574864e-01	3.893472e-02	1.631724e-02
0.12          	5.508438e-01	3.517797e-02	1.581091e-02
0.13          	5.267617e-01	3.147450e-02	1.547383e-02
0.14          	5.234406e-01	2.860554e-02	1.513841e-02
0.15          	5.153544e-01	2.636296e-02	1.478733e-02
0.16          	5.174248e-01	2.423359e-02	1.436895e-02
0.17          	5.038981e-01	2.235329e-02	1.397080e-02
0.18          	5.059245e-01	2.082203e-02	1.350156e-02
0.19          	4.881520e-01	1.950079e-02	1.280991e-02
0.2           	4.717916e-01	1.860276e-02	1.212791e-02
0.21          	4.553598e-01	1.776529e-02	1.104210e-02
0.22          	4.553263e-01	1.683817e-02	1.066201e-02
0.23          	4.341794e-01	1.597483e-02	1.015393e-02
0.24          	4.258362e-01	1.529241e-02	1.015477e-02
0.25          	4.158018e-01	1.434316e-02	9.797075e-03
0.26          	3.984072e-01	1.381703e-02	9.556574e-03
0.27          	3.966197e-01	1.328218e-02	9.413208e-03
0.28          	3.719057e-01	1.263795e-02	9.000903e-03
0.29          	3.722926e-01	1.227667e-02	8.904563e-03
0.3           	3.584450e-01	1.179092e-02	8.590339e-03
0.31          	3.446109e-01	1.129735e-02	8.340618e-03
0.32          	3.311832e-01	1.090583e-02	8.211482e-03
0.33          	3.173348e-01	1.061151e-02	7.938035e-03
0.34          	3.030325e-01	1.023316e-02	7.760651e-03
0.35          	2.863523e-01	9.906532e-03	7.579183e-03
0.36          	2.713258e-01	9.636341e-03	7.423009e-03
0.37          	2.532329e-01	9.471599e-03	7.067983e-03
0.38          	2.346271e-01	9.224188e-03	6.922903e-03
0.39          	2.315195e-01	9.048309e-03	6.816704e-03
0.4           	2.244135e-01	8.803622e-03	6.828624e-03
0.41          	2.131893e-01	8.524722e-03	6.747080e-03
0.42          	2.086967e-01	8.321834e-03	6.607839e-03
0.43          	2.026606e-01	8.107233e-03	6.697002e-03
0.44          	2.085869e-01	7.946436e-03	6.884070e-03
0.45          	2.131356e-01	7.841823e-03	7.106148e-03
0.46          	2.155705e-01	7.702962e-03	7.231318e-03
0.47          	2.216276e-01	7.568294e-03	7.422366e-03
0.48          	2.356099e-01	7.488894e-03	7.536565e-03
0.49          	2.354814e-01	7.406424e-03	7.525689e-03
0.5           	2.331089e-01	7.268565e-03	7.433813e-03
0.51          	2.308603e-01	7.166073e-03	7.446407e-03
0.52          	2.276039e-01	6.991940e-03	7.510353e-03
0.53          	2.277819e-01	6.906580e-03	7.569213e-03
0.54          	2.358469e-01	6.831891e-03	7.936586e-03
0.55          	2.378494e-01	6.639168e-03	8.053378e-03
0.56          	2.340153e-01	6.549897e-03	8.406347e-03
0.57          	2.391078e-01	6.429121e-03	8.477299e-03
0.58          	2.292241e-01	6.252125e-03	8.376195e-03
0.59          	2.370591e-01	6.085399e-03	8.342385e-03
0.6           	2.227173e-01	5.917384e-03	8.179377e-03
0.61          	2.153948e-01	5.774277e-03	7.964070e-03
0.62          	2.139959e-01	5.677680e-03	7.851561e-03
0.63          	2.049629e-01	5.540379e-03	7.791858e-03
0.64          	2.130250e-01	5.467670e-03	7.819639e-03
0.65          	2.056748e-01	5.418463e-03	7.829127e-03
0.66          	2.137771e-01	5.337103e-03	7.776034e-03
0.67          	2.095715e-01	5.294532e-03	7.760444e-03
0.68          	2.148251e-01	5.278766e-03	7.797130e-03
0.69          	2.192670e-01	5.252516e-03	7.804237e-03
0.7           	2.200995e-01	5.211207e-03	7.874085e-03
0.71          	2.272442e-01	5.268765e-03	7.928544e-03
0.72          	2.243507e-01	5.285150e-03	7.850595e-03
0.73          	2.267793e-01	5.241624e-03	7.685218e-03
0.74          	2.260088e-01	5.197581e-03	7.578033e-03
0.75          	2.271931e-01	5.099723e-03	7.421752e-03
0.76          	2.279316e-01	5.014313e-03	7.350177e-03
0.77          	2.341519e-01	4.963977e-03	7.251671e-03
0.78          	2.486914e-01	4.865548e-03	7.285342e-03
0.79          	2.499081e-01	4.799671e-03	7.495944e-03
0.8           	2.455047e-01	4.784110e-03	7.783430e-03
0.81          	2.519634e-01	4.740302e-03	8.190251e-03
0.82          	2.722303e-01	4.707249e-03	8.736530e-03
0.83          	2.835810e-01	4.615665e-03	9.222595e-03
0.84          	2.850694e-01	4.601022e-03	9.786496e-03
0.85          	2.932670e-01	4.501472e-03	1.018436e-02
0.86          	3.076939e-01	4.462490e-03	1.037756e-02
0.87          	3.177006e-01	4.402601e-03	1.063520e-02
0.88          	3.433171e-01	4.380449e-03	1.086670e-02
0.89          	3.438520e-01	4.380063e-03	1.132416e-02
0.9           	3.514279e-01	4.405744e-03	1.190132e-02
0.91          	3.621887e-01	4.438223e-03	1.257310e-02
0.92          	3.795713e-01	4.477870e-03	1.315150e-02
0.93          	3.866876e-01	4.497298e-03	1.376999e-02
0.94          	3.518958e-01	4.501460e-03	1.457401e-02
0.95          	3.491358e-01	4.504416e-03	1.535781e-02
0.96          	3.541579e-01	4.465414e-03	1.604890e-02
0.97          	3.570072e-01	4.397481e-03	1.596199e-02
0.98          	3.596601e-01	4.346047e-03	1.641324e-02
0.99          	3.507258e-01	4.326456e-03	1.660006e-02
1             	3.497831e-01	4.281483e-03	1.698278e-02
1.01          	3.470955e-01	4.203569e-03	1.708848e-02
1.02          	3.359786e-01	4.118456e-03	1.697027e-02
1.03          	3.294311e-01	4.046387e-03	1.691162e-02
1.04          	3.410707e-01	3.999580e-03	1.693334e-02
1.05          	3.467500e-01	3.971035e-03	1.695306e-02
1.06          	3.619063e-01	3.988289e-03	1.689948e-02
1.07          	3.790765e-01	4.082369e-03	1.679556e-02
1.08          	4.003858e-01	4.150196e-03	1.659250e-02
1.09          	4.125049e-01	4.144777e-03	1.643634e-02
1.1           	4.074792e-01	4.271064e-03	1.641637e-02
1.11          	3.813906e-01	4.270026e-03	1.616509e-02
1.12          	3.590812e-01	4.220412e-03	1.580549e-02
1.13          	3.515660e-01	4.190880e-03	1.552742e-02
1.14          	3.332858e-01	4.142256e-03	1.512686e-02
1.15          	3.202514e-01	4.064446e-03	1.473656e-02
1.16          	3.144860e-01	3.992187e-03	1.448418e-02
1.17          	3.062369e-01	3.902940e-03	1.404021e-02
1.18          	3.281329e-01	3.853306e-03	1.367194e-02
1.19          	3.419500e-01	3.806106e-03	1.356535e-02
1.2           	3.572578e-01	3.797263e-03	1.375411e-02
1.21          	3.402187e-01	3.817134e-03	1.425547e-02
1.22          	3.313481e-01	3.880223e-03	1.507432e-02
1.23          	3.496082e-01	3.955004e-03	1.612048e-02
1.24          	3.688374e-01	4.033849e-03	1.714346e-02
1.25          	3.663381e-01	4.053846e-03	1.796242e-02
1.26          	3.782861e-01	4.030565e-03	1.886970e-02
1.27          	3.734636e-01	4.038391e-03	1.967020e-02
1.28          	3.691865e-01	3.997979e-03	2.024842e-02
1.29          	3.883722e-01	3.918073e-03	2.064225e-02
1.3           	3.839667e-01	3.831383e-03	2.084772e-02
1.31          	3.688475e-01	3.788271e-03	2.136676e-02
1.32          	3.759430e-01	3.771344e-03	2.181484e-02
1.33          	3.749261e-01	3.771225e-03	2.251093e-02
1.34          	3.820255e-01	3.871108e-03	2.369027e-02
1.35          	4.104719e-01	3.987809e-03	2.475823e-02
1.36          	3.981470e-01	4.177551e-03	2.674850e-02
1.37          	3.964418e-01	4.390627e-03	2.954456e-02
1.38          	3.991295e-01	4.562547e-03	3.245851e-02
1.39          	4.107327e-01	4.696559e-03	3.460555e-02
1.4           	4.033252e-01	4.793294e-03	3.569668e-02
1.41          	3.937933e-01	4.970977e-03	3.650382e-02
1.42          	3.877611e-01	5.081049e-03	3.665963e-02
1.43          	3.940212e-01	5.225851e-03	3.652989e-02
1.44          	3.877880e-01	5.216405e-03	3.562895e-02
1.45          	4.004843e-01	5.213404e-03	3.444652e-02
1.46          	3.813447e-01	5.170818e-03	3.320528e-02
1.47          	3.693473e-01	5.102791e-03	3.169693e-02
1.48          	3.778603e-01	5.114569e-03	3.037320e-02
1.49          	3.625813e-01	5.068214e-03	2.920447e-02
1.5           	3.784101e-01	5.012865e-03	2.824004e-02
1.51          	3.767771e-01	4.929404e-03	2.725781e-02
1.52          	4.015760e-01	4.892513e-03	2.630732e-02
1.53          	3.936093e-01	4.978411e-03	2.557223e-02
1.54          	4.040021e-01	5.072651e-03	2.533172e-02
1.55          	3.950418e-01	5.129712e-03	2.525345e-02
1.56          	3.871087e-01	5.194232e-03	2.544862e-02
1.57          	3.834856e-01	5.258235e-03	2.568043e-02
1.58          	3.658258e-01	5.301204e-03	2.607527e-02
1.59          	3.563381e-01	5.289621e-03	2.658547e-02
1.6           	3.338439e-01	5.278038e-03	2.694187e-02
1.61          	3.175664e-01	5.213949e-03	2.730613e-02
1.62          	3.215604e-01	5.133448e-03	2.770449e-02
1.63          	3.053692e-01	5.044884e-03	2.797942e-02
1.64          	2.832340e-01	4.950668e-03	2.837715e-02
1.65          	2.847874e-01	4.852634e-03	2.865691e-02
1.66          	2.766657e-01	4.760322e-03	2.879256e-02
1.67          	2.739064e-01	4.668828e-03	2.860343e-02
1.68          	2.724196e-01	4.574429e-03	2.793417e-02
1.69          	2.537940e-01	4.467729e-03	2.714562e-02
1.7           	2.547247e-01	4.393915e-03	2.614536e-02
1.71          	2.869357e-01	4.382709e-03	2.540182e-02
1.72          	2.862715e-01	4.359023e-03	2.484309e-02
1.73          	2.986687e-01	4.373719e-03	2.438439e-02
1.74          	2.886456e-01	4.436687e-03	2.441795e-02
1.75          	3.060662e-01	4.522522e-03	2.454332e-02
1.76          	3.242023e-01	4.604761e-03	2.488561e-02
1.77          	3.320099e-01	4.660668e-03	2.551050e-02
1.78          	3.400488e-01	4.711641e-03	2.630010e-02
1.79          	3.638979e-01	4.715870e-03	2.719243e-02
1.8           	3.725142e-01	4.700998e-03	2.835638e-02
1.81          	3.833765e-01	4.734114e-03	2.943496e-02
1.82          	4.082185e-01	4.820371e-03	3.059954e-02
1.83          	4.255910e-01	4.933607e-03	3.197413e-02
1.84          	4.128708e-01	5.133694e-03	3.368727e-02
1.85          	4.001839e-01	5.363854e-03	3.520291e-02
1.86          	4.175842e-01	5.603987e-03	3.675853e-02
1.87          	4.232454e-01	5.899419e-03	3.877736e-02
1.88          	4.279274e-01	6.198560e-03	4.018448e-02
1.89          	4.226612e-01	6.328049e-03	4.099480e-02
1.9           	4.208144e-01	6.486754e-03	4.153381e-02
1.91          	4.223693e-01	6.611727e-03	4.182580e-02
1.92          	4.144708e-01	6.643376e-03	4.152767e-02
1.93          	4.077864e-01	6.558128e-03	4.065631e-02
1.94          	4.009143e-01	6.461004e-03	4.002345e-02
1.95          	3.901719e-01	6.389939e-03	3.902524e-02
1.96          	3.978140e-01	6.381069e-03	3.824958e-02
1.97          	3.970904e-01	6.443686e-03	3.738585e-02
1.98          	4.044266e-01	6.498207e-03	3.648164e-02
1.99          	3.956334e-01	6.543019e-03	3.562058e-02
2             	3.861128e-01	6.577451e-03	3.475688e-02
2.01          	3.814006e-01	6.573489e-03	3.364563e-02
2.02          	3.643490e-01	6.527509e-03	3.258520e-02
2.03          	3.325560e-01	6.519634e-03	3.164879e-02
2.04          	3.172028e-01	6.487483e-03	3.067636e-02
2.05          	2.926573e-01	6.429684e-03	2.982130e-02
2.06          	2.712050e-01	6.333974e-03	2.928186e-02
2.07          	2.567731e-01	6.235488e-03	2.867444e-02
2.08          	2.460180e-01	6.083753e-03	2.792846e-02
2.09          	2.413477e-01	5.880941e-03	2.720393e-02
2.1           	2.422889e-01	5.726587e-03	2.656773e-02
2.11          	2.376051e-01	5.615081e-03	2.619401e-02
2.12          	2.371121e-01	5.503994e-03	2.611761e-02
2.13          	2.338733e-01	5.379217e-03	2.587269e-02
2.14          	2.267084e-01	5.274602e-03	2.567898e-02
2.15          	2.294587e-01	5.169362e-03	2.550044e-02
2.16          	2.251879e-01	5.079292e-03	2.514415e-02
2.17          	2.341940e-01	4.986438e-03	2.477279e-02
2.18          	2.283100e-01	4.895175e-03	2.441977e-02
2.19          	2.392750e-01	4.805766e-03	2.415747e-02
2.2           	2.529355e-01	4.764167e-03	2.389995e-02
2.21          	2.694101e-01	4.709576e-03	2.387847e-02
2.22          	2.798863e-01	4.715016e-03	2.409487e-02
2.23          	3.081225e-01	4.771396e-03	2.453730e-02
2.24          	3.245086e-01	4.849477e-03	2.543190e-02
2.25          	3.390360e-01	4.932233e-03	2.635605e-02
2.26          	3.497343e-01	4.979849e-03	2.747825e-02
2.27          	3.558676e-01	5.005025e-03	2.868884e-02
2.28          	3.756241e-01	5.015791e-03	2.984399e-02
2.29          	3.834040e-01	5.015217e-03	3.103365e-02
2.3           	3.667687e-01	5.052545e-03	3.241235e-02
2.31          	3.753960e-01	5.076620e-03	3.376873e-02
2.32          	4.020396e-01	5.103360e-03	3.520303e-02
2.33          	3.987977e-01	5.189777e-03	3.628344e-02
2.34          	4.034945e-01	5.340104e-03	3.732894e-02
2.35          	4.119633e-01	5.526275e-03	3.831495e-02
2.36          	4.229470e-01	5.713780e-03	3.883343e-02
2.37          	4.285733e-01	5.948263e-03	3.911096e-02
2.38          	4.234596e-01	6.154222e-03	3.894591e-02
2.39          	4.243669e-01	6.262009e-03	3.833105e-02
2.4           	4.398560e-01	6.330607e-03	3.736692e-02
2.41          	4.363872e-01	6.379412e-03	3.622476e-02
2.42          	4.205726e-01	6.392369e-03	3.506977e-02
2.43          	4.058147e-01	6.369532e-03	3.410335e-02
2.44          	3.987208e-01	6.389457e-03	3.311552e-02
2.45          	3.930583e-01	6.400251e-03	3.250301e-02
2.46          	3.968937e-01	6.428259e-03	3.179270e-02
2.47          	3.931987e-01	6.458389e-03	3.116766e-02
2.48          	3.767269e-01	6.425356e-03	3.045678e-02
2.49          	3.577994e-01	6.410636e-03	2.955898e-02
2.5           	3.358455e-01	6.400573e-03	2.865456e-02
2.51          	3.102925e-01	6.344455e-03	2.782003e-02
2.52          	2.833710e-01	6.267543e-03	2.701470e-02
2.53          	2.699697e-01	6.185819e-03	2.632017e-02
2.54          	2.590347e-01	6.104322e-03	2.579840e-02
2.55          	2.413527e-01	5.993495e-03	2.528325e-02
2.56          	2.401904e-01	5.876784e-03	2.488756e-02
2.57          	2.214526e-01	5.743410e-03	2.441321e-02
2.58          	2.244028e-01	5.594217e-03	2.375298e-02
2.59          	2.143944e-01	5.393930e-03	2.291964e-02
2.6           	2.122911e-01	5.202128e-03	2.221555e-02
2.61          	2.065068e-01	5.039723e-03	2.173425e-02
2.62          	1.899198e-01	4.877827e-03	2.131404e-02
2.63          	1.952170e-01	4.732390e-03	2.103559e-02
2.64          	1.857012e-01	4.584152e-03	2.075913e-02
2.65          	1.886923e-01	4.458327e-03	2.046349e-02
2.66          	2.003949e-01	4.342048e-03	2.018224e-02
2.67          	2.001911e-01	4.262557e-03	1.996010e-02
2.68          	2.092693e-01	4.210808e-03	1.987670e-02
2.69          	2.391561e-01	4.207605e-03	2.001638e-02
2.7           	2.573760e-01	4.254547e-03	2.018204e-02
2.71          	2.610618e-01	4.321330e-03	2.046989e-02
2.72          	2.801664e-01	4.454450e-03	2.113032e-02
2.73          	3.082533e-01	4.586446e-03	2.193072e-02
2.74          	3.178187e-01	4.709784e-03	2.303418e-02
2.75          	3.268175e-01	4.819432e-03	2.417753e-02
2.76          	3.537478e-01	4.886478e-03	2.544872e-02
2.77          	3.457785e-01	4.935668e-03	2.664172e-02
2.78          	3.727977e-01	4.944346e-03	2.763147e-02
2.79          	3.815774e-01	4.929054e-03	2.845524e-02
2.8           	3.632743e-01	4.914998e-03	2.898108e-02
2.81          	3.677874e-01	4.915924e-03	2.929693e-02
2.82          	3.663905e-01	4.933293e-03	2.956148e-02
2.83          	3.686598e-01	5.006121e-03	2.981161e-02
2.84          	3.680904e-01	5.150284e-03	2.995982e-02
2.85          	3.754344e-01	5.331809e-03	2.981587e-02
2.86          	3.691113e-01	5.550698e-03	2.967849e-02
2.87          	3.915246e-01	5.793145e-03	2.939995e-02
2.88          	4.165952e-01	6.005527e-03	2.917049e-02
2.89          	4.138081e-01	6.183068e-03	2.877228e-02
2.9           	3.851032e-01	6.335336e-03	2.838118e-02
2.91          	3.465461e-01	6.471673e-03	2.773564e-02
2.92          	3.321504e-01	6.583918e-03	2.707217e-02
2.93          	3.302069e-01	6.622349e-03	2.634853e-02
2.94          	3.012335e-01	6.646433e-03	2.559008e-02
2.95          	2.915966e-01	6.708414e-03	2.516527e-02
2.96          	2.735979e-01	6.758824e-03	2.482280e-02
2.97          	2.748212e-01	6.806317e-03	2.443341e-02
2.98          	2.713106e-01	6.868982e-03	2.404157e-02
2.99          	2.769868e-01	6.946166e-03	2.386693e-02
3             	2.720917e-01	6.982630e-03	2.364803e-02
3.01          	2.670291e-01	7.013606e-03	2.346249e-02
3.02          	2.589821e-01	7.020917e-03	2.325532e-02
3.03          	2.290871e-01	6.995307e-03	2.317799e-02
3.04          	2.249709e-01	6.952934e-03	2.307919e-02
3.05          	2.061812e-01	6.861813e-03	2.296022e-02
3.06          	2.045779e-01	6.751366e-03	2.276334e-02
3.07          	1.997540e-01	6.594626e-03	2.247662e-02
3.08          	1.948814e-01	6.424578e-03	2.211166e-02
3.09          	2.064700e-01	6.238377e-03	2.182737e-02
3.1           	1.991665e-01	6.091165e-03	2.169159e-02
3.11          	1.967600e-01	5.951797e-03	2.167448e-02
3.12          	2.045363e-01	5.813096e-03	2.173262e-02
3.13          	2.055945e-01	5.678335e-03	2.180656e-02
3.14          	2.050841e-01	5.551537e-03	2.188185e-02
3.15          	2.081580e-01	5.429732e-03	2.196308e-02
3.16          	2.098099e-01	5.361653e-03	2.204484e-02
3.17          	2.039914e-01	5.335753e-03	2.221925e-02
3.18          	2.299904e-01	5.348156e-03	2.256237e-02
3.19          	2.259648e-01	5.392235e-03	2.293013e-02
3.2           	2.615219e-01	5.454127e-03	2.326127e-02
3.21          	2.679091e-01	5.560749e-03	2.376808e-02
3.22          	2.749168e-01	5.695086e-03	2.422935e-02
3.23          	2.922021e-01	5.860369e-03	2.469399e-02
3.24          	3.050562e-01	5.979871e-03	2.536784e-02
3.25          	3.192579e-01	6.103164e-03	2.590464e-02
3.26          	3.188495e-01	6.201751e-03	2.648046e-02
3.27          	3.379789e-01	6.294389e-03	2.706782e-02
3.28          	3.445604e-01	6.362933e-03	2.743103e-02
3.29          	3.458225e-01	6.412539e-03	2.758856e-02
3.3           	3.461586e-01	6.460774e-03	2.754558e-02
3.31          	3.436831e-01	6.514844e-03	2.727746e-02
3.32          	3.365923e-01	6.620908e-03	2.695302e-02
3.33          	3.419214e-01	6.754703e-03	2.661734e-02
3.34          	3.385496e-01	6.908214e-03	2.628581e-02
3.35          	3.392853e-01	7.103345e-03	2.608609e-02
3.36          	3.247757e-01	7.296281e-03	2.576632e-02
3.37          	3.180014e-01	7.494919e-03	2.562533e-02
3.38          	3.238495e-01	7.666383e-03	2.538318e-02
3.39          	3.080722e-01	7.802143e-03	2.518360e-02
3.4           	3.075939e-01	7.859465e-03	2.486541e-02
3.41          	3.000545e-01	7.892710e-03	2.440026e-02
3.42          	2.794423e-01	7.923467e-03	2.397082e-02
3.43          	2.666399e-01	7.923918e-03	2.357818e-02
3.44          	2.420363e-01	7.911419e-03	2.318458e-02
3.45          	2.266264e-01	7.904903e-03	2.277528e-02
3.46          	2.251782e-01	7.935643e-03	2.251891e-02
3.47          	2.239421e-01	7.946343e-03	2.224343e-02
3.48          	2.134564e-01	7.956964e-03	2.214195e-02
3.49          	2.106008e-01	7.961172e-03	2.204345e-02
3.5           	2.093326e-01	7.959548e-03	2.202235e-02
3.51          	2.025754e-01	7.953872e-03	2.210536e-02
3.52          	2.064194e-01	7.901197e-03	2.208819e-02
3.53          	2.061079e-01	7.812379e-03	2.201549e-02
3.54          	2.092579e-01	7.669053e-03	2.184742e-02
3.55          	2.113458e-01	7.458019e-03	2.167642e-02
3.56          	2.197602e-01	7.253661e-03	2.158762e-02
3.57          	2.083117e-01	7.080122e-03	2.157737e-02
3.58          	2.113958e-01	6.906543e-03	2.169303e-02
3.59          	2.112828e-01	6.763082e-03	2.181584e-02
3.6           	2.093898e-01	6.620165e-03	2.193632e-02
3.61          	2.225269e-01	6.475655e-03	2.212378e-02
3.62          	2.218323e-01	6.349729e-03	2.231301e-02
3.63          	2.241273e-01	6.247851e-03	2.252585e-02
3.64          	2.207524e-01	6.161008e-03	2.273975e-02
3.65          	2.259413e-01	6.124567e-03	2.304464e-02
3.66          	2.559262e-01	6.097228e-03	2.337294e-02
3.67          	2.710928e-01	6.121645e-03	2.370701e-02
3.68          	2.876516e-01	6.200913e-03	2.400941e-02
3.69          	2.820560e-01	6.299513e-03	2.427830e-02
3.7           	2.765702e-01	6.440574e-03	2.452087e-02
3.71          	2.732330e-01	6.545655e-03	2.491709e-02
3.72          	2.912291e-01	6.666127e-03	2.525941e-02
3.73          	3.074809e-01	6.747293e-03	2.562820e-02
3.74          	3.255988e-01	6.817678e-03	2.588239e-02
3.75          	3.273795e-01	6.864397e-03	2.597831e-02
3.76          	3.308032e-01	6.936877e-03	2.590236e-02
3.77          	3.274693e-01	7.034660e-03	2.566392e-02
3.78          	3.348865e-01	7.182825e-03	2.536507e-02
3.79          	3.342868e-01	7.393641e-03	2.498262e-02
3.8           	3.238450e-01	7.602251e-03	2.466569e-02
3.81          	3.001099e-01	7.828834e-03	2.427375e-02
3.82          	2.938534e-01	8.070889e-03	2.408262e-02
3.83          	2.947208e-01	8.275597e-03	2.391281e-02
3.84          	3.041931e-01	8.412736e-03	2.368289e-02
3.85          	2.998649e-01	8.532735e-03	2.342770e-02
3.86          	3.009929e-01	8.607032e-03	2.310763e-02
3.87          	2.823213e-01	8.673116e-03	2.272692e-02
3.88          	2.669121e-01	8.722593e-03	2.227677e-02
3.89          	2.483882e-01	8.705025e-03	2.189544e-02
3.9           	2.334471e-01	8.698655e-03	2.149386e-02
3.91          	2.163520e-01	8.684738e-03	2.116592e-02
3.92          	2.131282e-01	8.673664e-03	2.085425e-02
3.93          	2.102457e-01	8.660227e-03	2.061289e-02
3.94          	2.000205e-01	8.633094e-03	2.047998e-02
3.95          	1.971605e-01	8.621823e-03	2.038067e-02
3.96          	1.951641e-01	8.606360e-03	2.035098e-02
3.97          	1.921870e-01	8.563554e-03	2.029481e-02
3.98          	1.920468e-01	8.483048e-03	2.021028e-02
3.99          	1.978086e-01	8.312888e-03	2.009561e-02
4             	2.060378e-01	8.114481e-03	2.000633e-02
4.01          	2.047205e-01	7.933145e-03	1.999828e-02
4.02          	1.933933e-01	7.758397e-03	2.005068e-02
4.03          	1.925384e-01	7.603036e-03	2.016175e-02
4.04          	1.962848e-01	7.480907e-03	2.032679e-02
4.05          	1.974900e-01	7.347590e-03	2.050027e-02
4.06          	2.063032e-01	7.229172e-03	2.074508e-02
4.07          	2.089605e-01	7.121529e-03	2.107633e-02
4.08          	2.280709e-01	7.038776e-03	2.142865e-02
4.09          	2.489214e-01	6.965024e-03	2.179503e-02
4.1           	2.665124e-01	6.915238e-03	2.225023e-02
4.11          	2.850502e-01	6.907549e-03	2.266948e-02
4.12          	3.032250e-01	6.941791e-03	2.297830e-02
4.13          	3.024168e-01	6.987852e-03	2.325130e-02
4.14          	2.924162e-01	7.054051e-03	2.359293e-02
4.15          	2.939777e-01	7.123678e-03	2.391328e-02
4.16          	2.836543e-01	7.190416e-03	2.428262e-02
4.17          	3.000237e-01	7.227409e-03	2.458234e-02
4.18          	3.203602e-01	7.259737e-03	2.475797e-02
4.19          	3.328475e-01	7.270301e-03	2.478473e-02
4.2           	3.268809e-01	7.291023e-03	2.472025e-02
4.21          	3.168685e-01	7.363566e-03	2.451046e-02
4.22          	3.027472e-01	7.497325e-03	2.426671e-02
4.23          	3.232805e-01	7.677644e-03	2.397714e-02
4.24          	3.087288e-01	7.905286e-03	2.362108e-02
4.25          	2.916967e-01	8.150485e-03	2.336625e-02
4.26          	2.799459e-01	8.415283e-03	2.320752e-02
4.27          	2.813265e-01	8.589559e-03	2.297811e-02
4.28          	2.872480e-01	8.753945e-03	2.276931e-02
4.29          	2.913571e-01	8.857245e-03	2.258944e-02
4.3           	2.895456e-01	8.954280e-03	2.233100e-02
4.31          	2.923674e-01	9.039307e-03	2.197866e-02
4.32          	2.687835e-01	9.103689e-03	2.165253e-02
4.33          	2.552497e-01	9.099420e-03	2.126275e-02
4.34          	2.275097e-01	9.095781e-03	2.084775e-02
4.35          	2.210900e-01	9.071880e-03	2.047166e-02
4.36          	2.025974e-01	9.077138e-03	2.017487e-02
4.37          	2.024545e-01	9.072446e-03	1.994522e-02
4.38          	1.954181e-01	9.074394e-03	1.973297e-02
4.39          	1.901550e-01	9.065630e-03	1.957599e-02
4.4           	1.828873e-01	9.052844e-03	1.949162e-02
4.41          	1.737182e-01	9.023776e-03	1.939524e-02
4.42          	1.700056e-01	8.957299e-03	1.932534e-02
4.43          	1.765974e-01	8.807235e-03	1.924359e-02
4.44          	1.854903e-01	8.613319e-03	1.912843e-02
4.45          	1.833409e-01	8.442845e-03	1.909987e-02
4.46          	1.758506e-01	8.264569e-03	1.908277e-02
4.47          	1.769499e-01	8.115578e-03	1.912656e-02
4.48          	1.733298e-01	7.992626e-03	1.922646e-02
4.49          	1.740858e-01	7.887144e-03	1.944695e-02
4.5           	1.876530e-01	7.792497e-03	1.974662e-02
4.51          	2.164835e-01	7.708319e-03	2.005392e-02
4.52          	2.489839e-01	7.648870e-03	2.047143e-02
4.53          	2.689124e-01	7.601511e-03	2.092481e-02
4.54          	2.665850e-01	7.564516e-03	2.136299e-02
4.55          	2.837545e-01	7.576458e-03	2.178504e-02
4.56          	2.845517e-01	7.568399e-03	2.223907e-02
4.57          	2.804851e-01	7.603142e-03	2.263393e-02
4.58          	2.867262e-01	7.614262e-03	2.305589e-02
4.59          	2.868244e-01	7.642262e-03	2.342649e-02
4.6           	2.937407e-01	7.642715e-03	2.373976e-02
4.61          	3.074049e-01	7.638022e-03	2.391457e-02
4.62          	3.156757e-01	7.625956e-03	2.396133e-02
4.63          	3.193732e-01	7.615451e-03	2.387629e-02
4.64          	3.111877e-01	7.639176e-03	2.371535e-02
4.65          	3.122275e-01	7.742696e-03	2.353191e-02
4.66          	3.067219e-01	7.896694e-03	2.328652e-02
4.67          	3.007025e-01	8.137836e-03	2.301667e-02
4.68          	2.902811e-01	8.398925e-03	2.277512e-02
4.69          	2.795988e-01	8.704529e-03	2.257971e-02
4.7           	2.647229e-01	9.004522e-03	2.239666e-02
4.71          	2.728810e-01	9.255079e-03	2.224387e-02
4.72          	2.921090e-01	9.423434e-03	2.204099e-02
4.73          	2.845868e-01	9.517898e-03	2.182958e-02
4.74          	2.755621e-01	9.573672e-03	2.158381e-02
4.75          	2.671441e-01	9.621789e-03	2.126723e-02
4.76          	2.503685e-01	9.636355e-03	2.096558e-02
4.77          	2.448234e-01	9.646713e-03	2.064009e-02
4.78          	2.197367e-01	9.660072e-03	2.029699e-02
4.79          	2.302508e-01	9.668555e-03	2.005478e-02
4.8           	2.217817e-01	9.687230e-03	1.978986e-02
4.81          	2.279568e-01	9.699728e-03	1.957596e-02
4.82          	2.042181e-01	9.683509e-03	1.938177e-02
4.83          	1.899082e-01	9.673956e-03	1.928217e-02
4.84          	1.851176e-01	9.643502e-03	1.916538e-02
4.85          	1.905515e-01	9.612397e-03	1.905808e-02
4.86          	1.953700e-01	9.548399e-03	1.897322e-02
4.87          	1.999318e-01	9.378789e-03	1.885613e-02
4.88          	1.994193e-01	9.171640e-03	1.873608e-02
4.89          	1.999694e-01	8.978785e-03	1.867201e-02
4.9           	1.858898e-01	8.783061e-03	1.871077e-02
4.91          	1.790252e-01	8.602871e-03	1.876262e-02
4.92          	1.799529e-01	8.455946e-03	1.888059e-02
4.93          	1.812119e-01	8.321985e-03	1.904282e-02
4.94          	1.896146e-01	8.217736e-03	1.929508e-02
4.95          	2.128018e-01	8.119993e-03	1.963306e-02
4.96          	2.492221e-01	8.038581e-03	2.000662e-02
4.97          	2.765733e-01	7.979061e-03	2.042877e-02
4.98          	2.807311e-01	7.942034e-03	2.087227e-02
4.99          	2.988832e-01	7.944980e-03	2.125602e-02
5             	2.912473e-01	7.931795e-03	2.163570e-02
5.01          	2.719745e-01	7.949374e-03	2.202784e-02
5.02          	2.882698e-01	7.943659e-03	2.241867e-02
5.03          	2.995949e-01	7.956157e-03	2.279012e-02
5.04          	3.221272e-01	7.962035e-03	2.305942e-02
5.05          	3.258528e-01	7.962137e-03	2.320824e-02
5.06          	3.182862e-01	7.941604e-03	2.325009e-02
5.07          	3.140143e-01	7.942734e-03	2.314367e-02
5.08          	3.158744e-01	7.987664e-03	2.296182e-02
5.09          	3.077109e-01	8.125504e-03	2.270588e-02
5.1           	3.014250e-01	8.292376e-03	2.249131e-02
5.11          	2.969215e-01	8.538139e-03	2.229058e-02
5.12          	2.801285e-01	8.838658e-03	2.207091e-02
5.13          	2.806080e-01	9.137932e-03	2.193110e-02
5.14          	2.806346e-01	9.445419e-03	2.183162e-02
5.15          	2.845920e-01	9.696441e-03	2.169745e-02
5.16          	2.956874e-01	9.861710e-03	2.147883e-02
5.17          	2.760144e-01	9.960186e-03	2.126908e-02
5.18          	2.822695e-01	1.001304e-02	2.099061e-02
5.19          	2.574493e-01	1.003417e-02	2.068484e-02
5.2           	2.415787e-01	1.004664e-02	2.038442e-02
5.21          	2.473376e-01	1.005271e-02	2.011809e-02
5.22          	2.468208e-01	1.008094e-02	1.985216e-02
5.23          	2.546784e-01	1.009021e-02	1.966125e-02
5.24          	2.464812e-01	1.012411e-02	1.944504e-02
5.25          	2.307973e-01	1.012362e-02	1.925682e-02
5.26          	2.064777e-01	1.008389e-02	1.908998e-02
5.27          	1.959751e-01	1.004082e-02	1.897230e-02
5.28          	1.912740e-01	9.987926e-03	1.886964e-02
5.29          	1.927980e-01	9.932757e-03	1.872177e-02
5.3           	2.018970e-01	9.841442e-03	1.860020e-02
5.31          	2.161069e-01	9.675953e-03	1.847513e-02
5.32          	2.061739e-01	9.479965e-03	1.836868e-02
5.33          	1.953854e-01	9.295647e-03	1.836477e-02
5.34          	1.918599e-01	9.110715e-03	1.838287e-02
5.35          	1.869174e-01	8.952801e-03	1.848815e-02
5.36          	1.840274e-01	8.816254e-03	1.863429e-02
5.37          	1.873480e-01	8.693343e-03	1.880370e-02
5.38          	2.037234e-01	8.569944e-03	1.906586e-02
5.39          	2.509168e-01	8.463772e-03	1.937453e-02
5.4           	2.716274e-01	8.395042e-03	1.978912e-02
5.41          	3.041317e-01	8.357536e-03	2.022130e-02
5.42          	3.136094e-01	8.351079e-03	2.063453e-02
5.43          	3.097872e-01	8.316667e-03	2.105658e-02
5.44          	3.133924e-01	8.318055e-03	2.146675e-02
5.45          	2.960558e-01	8.308617e-03	2.186149e-02
5.46          	3.068312e-01	8.289629e-03	2.223600e-02
5.47          	3.182521e-01	8.261854e-03	2.256806e-02
5.48          	3.433416e-01	8.223073e-03	2.276284e-02
5.49          	3.456056e-01	8.176000e-03	2.288765e-02
5.5           	3.231621e-01	8.147068e-03	2.289370e-02
5.51          	3.272487e-01	8.157581e-03	2.280282e-02
5.52          	3.247401e-01	8.216262e-03	2.260793e-02
5.53          	3.178211e-01	8.373560e-03	2.242152e-02
5.54          	3.094203e-01	8.572375e-03	2.224499e-02