# Probe 0 (0.1 0.01 0.145)
#       Probe             0
#        Time
         0.01             (0.00627325 -0.000609395 -3.38261e-24)
         0.02             (0.0101719 -0.000611041 4.46178e-25)
         0.03             (0.0128955 -0.00116111 -3.6794e-25)
         0.04             (0.0146885 -0.00144332 7.68166e-25)
         0.05             (0.0163272 -0.00166814 4.10703e-25)
         0.06             (0.0175028 -0.00218271 1.17625e-24)
         0.07             (0.0185753 -0.00243188 9.39852e-25)
         0.08             (0.0196046 -0.00263332 1.32348e-24)
         0.09             (0.0205742 -0.00269967 1.29915e-24)
          0.1             (0.021471 -0.00268576 1.45061e-24)
         0.11             (0.0223249 -0.00265122 1.53805e-24)
         0.12             (0.0231351 -0.00262433 1.60801e-24)
         0.13             (0.0239631 -0.00265108 1.66946e-24)
         0.14             (0.0248221 -0.00271004 1.7077e-24)
         0.15             (0.0257088 -0.00280602 1.7695e-24)
         0.16             (0.0266154 -0.00294 1.80525e-24)
         0.17             (0.0275316 -0.00310567 1.92301e-24)
         0.18             (0.0284427 -0.0032917 1.95108e-24)
         0.19             (0.0293481 -0.0034961 2.04149e-24)
          0.2             (0.030243 -0.00371616 2.08551e-24)
         0.21             (0.0311168 -0.00393789 2.12924e-24)
         0.22             (0.0319759 -0.0041596 2.13319e-24)
         0.23             (0.0328158 -0.0043764 2.13691e-24)
         0.24             (0.0336522 -0.00458871 2.13704e-24)
         0.25             (0.0344969 -0.00480696 2.11075e-24)
         0.26             (0.0353565 -0.00503489 2.04218e-24)
         0.27             (0.03623 -0.00527434 1.99154e-24)
         0.28             (0.0371148 -0.00552459 1.85447e-24)
         0.29             (0.0380033 -0.00577845 1.7508e-24)
          0.3             (0.0388877 -0.00602641 1.63741e-24)
         0.31             (0.0397526 -0.00625448 1.53301e-24)
         0.32             (0.040586 -0.00645048 1.40739e-24)
         0.33             (0.0413823 -0.00660775 1.30742e-24)
         0.34             (0.0421433 -0.00672025 1.21074e-24)
         0.35             (0.0428788 -0.00678997 1.11171e-24)
         0.36             (0.0435928 -0.00681244 1.00899e-24)
         0.37             (0.0442905 -0.00679245 9.20827e-25)
         0.38             (0.0449764 -0.0067364 8.10861e-25)
         0.39             (0.0456523 -0.00664742 7.51021e-25)
          0.4             (0.0463096 -0.00652928 6.80448e-25)
         0.41             (0.0469431 -0.00640046 6.31026e-25)
         0.42             (0.0475615 -0.00628107 5.68049e-25)
         0.43             (0.048186 -0.00617953 5.07176e-25)
         0.44             (0.048819 -0.00609065 4.56874e-25)
         0.45             (0.0494528 -0.00599705 3.99497e-25)
         0.46             (0.0500703 -0.00591292 3.65161e-25)
         0.47             (0.050675 -0.00583906 3.07031e-25)
         0.48             (0.0512722 -0.00577642 2.08993e-25)
         0.49             (0.0518874 -0.00572559 1.35843e-25)
          0.5             (0.0525275 -0.00567503 5.67758e-26)
         0.51             (0.0531916 -0.00560618 -9.35265e-27)
         0.52             (0.0538661 -0.00551681 -6.27646e-26)
         0.53             (0.0545315 -0.00540951 -1.28382e-25)
         0.54             (0.0551704 -0.00529485 -1.43808e-25)
         0.55             (0.0557835 -0.00519066 -1.44457e-25)
         0.56             (0.0563812 -0.00509874 -1.5363e-25)
         0.57             (0.056957 -0.00501638 -1.25839e-25)
         0.58             (0.0575191 -0.00495541 -1.28811e-25)
         0.59             (0.0580697 -0.00490574 -1.47357e-25)
          0.6             (0.0586062 -0.00485072 -1.55775e-25)
         0.61             (0.0591341 -0.00477632 -1.88098e-25)
         0.62             (0.0596419 -0.00469994 -2.08396e-25)
         0.63             (0.0601225 -0.00463334 -2.16251e-25)
         0.64             (0.0605852 -0.00456423 -2.46355e-25)
         0.65             (0.0610414 -0.00448731 -2.53138e-25)
         0.66             (0.0614759 -0.00440082 -2.65346e-25)
         0.67             (0.0618717 -0.00432744 -2.89244e-25)
         0.68             (0.0622471 -0.004269 -2.89732e-25)
         0.69             (0.0626302 -0.00421312 -3.14761e-25)
          0.7             (0.0630002 -0.00413243 -2.96332e-25)
         0.71             (0.0633271 -0.00403966 -3.22633e-25)
         0.72             (0.063643 -0.00396609 -4.8483e-25)
         0.73             (0.0637852 -0.00395392 -2.55293e-25)
         0.74             (0.0640485 -0.00397165 -2.69311e-25)
         0.75             (0.0643442 -0.00395246 -2.66041e-25)
         0.76             (0.0646084 -0.00381145 -2.31632e-25)
         0.77             (0.0646394 -0.0036979 -1.9014e-25)
         0.78             (0.0646012 -0.00382709 -1.91607e-25)
         0.79             (0.0648035 -0.00410676 -2.71609e-25)
          0.8             (0.0653539 -0.00427339 -3.9469e-25)
         0.81             (0.065954 -0.00400363 -4.16073e-25)
         0.82             (0.0660805 -0.00344417 -2.60389e-25)
         0.83             (0.0657442 -0.00323144 -2.04638e-25)
         0.84             (0.0655965 -0.00353419 -2.24698e-25)
         0.85             (0.0660242 -0.00392007 -3.47927e-25)
         0.86             (0.0667793 -0.00390148 -4.39589e-25)
         0.87             (0.0672971 -0.00342461 -3.79443e-25)
         0.88             (0.067165 -0.0029501 -5.31199e-25)
         0.89             (0.06692 -0.0031403 -2.86281e-25)
          0.9             (0.0672258 -0.00371943 -3.81363e-25)
         0.91             (0.0680743 -0.00402745 -5.56252e-25)
         0.92             (0.0690202 -0.00387099 -7.38761e-25)
         0.93             (0.0696415 -0.00342946 -7.93335e-25)
         0.94             (0.069931 -0.00300554 -6.12701e-25)
         0.95             (0.0700984 -0.00278158 -1.06659e-24)
         0.96             (0.0701612 -0.00274825 -4.92532e-25)
         0.97             (0.070328 -0.00287391 -3.90326e-25)
         0.98             (0.0705184 -0.00313115 -4.05906e-25)
         0.99             (0.0708947 -0.00349062 -5.25994e-25)
            1             (0.0715604 -0.00379462 -6.52332e-25)
         1.01             (0.0723894 -0.00381751 -7.2581e-25)
         1.02             (0.0730876 -0.00351393 -7.46184e-25)
         1.03             (0.0734009 -0.00303058 -6.29009e-25)
         1.04             (0.0733705 -0.00268094 -6.69847e-25)
         1.05             (0.0732587 -0.00270052 -4.09042e-25)
         1.06             (0.0734268 -0.00305978 -4.01573e-25)
         1.07             (0.0739957 -0.00338417 -4.43047e-25)
         1.08             (0.0747005 -0.00335966 -4.31929e-25)
         1.09             (0.0750605 -0.00299613 -3.49426e-25)
          1.1             (0.0747468 -0.00268631 -4.12802e-25)
         1.11             (0.074506 -0.00322561 -2.39262e-25)
         1.12             (0.0748887 -0.00418535 -4.9592e-25)
         1.13             (0.0760844 -0.00483297 -8.82193e-25)
         1.14             (0.0773905 -0.00457171 -1.18426e-24)
         1.15             (0.0779532 -0.0036523 -1.21075e-24)
         1.16             (0.0776836 -0.00278302 -9.19723e-25)
         1.17             (0.0769408 -0.00230946 -5.37778e-25)
         1.18             (0.0760203 -0.00247283 -2.50808e-25)
         1.19             (0.0753938 -0.00326363 -2.81986e-25)
          1.2             (0.0753166 -0.00435445 -5.50271e-25)
         1.21             (0.0760896 -0.00571146 -9.4317e-25)
         1.22             (0.0779343 -0.0067828 -1.36391e-24)
         1.23             (0.080259 -0.00648726 -1.66666e-24)
         1.24             (0.0813627 -0.00446883 -1.61474e-24)
         1.25             (0.0798929 -0.00141867 -1.09191e-24)
         1.26             (0.0758073 0.00161774 -2.86405e-25)
         1.27             (0.0708916 0.00304734 5.1746e-25)
         1.28             (0.0680048 0.00139357 1.09036e-24)
         1.29             (0.0672219 -0.00150158 1.34527e-24)
          1.3             (0.0687724 -0.00471498 1.08531e-24)
         1.31             (0.0720299 -0.00760854 3.1867e-25)
         1.32             (0.0757892 -0.00919326 -6.42658e-25)
         1.33             (0.0792626 -0.00939986 -1.50732e-24)
         1.34             (0.0819904 -0.00863221 -2.24531e-24)
         1.35             (0.0839852 -0.00734051 -2.79523e-24)
         1.36             (0.0850321 -0.00518711 -3.04161e-24)
         1.37             (0.0839567 -0.00172357 -2.9134e-24)
         1.38             (0.080171 0.00206459 -2.37257e-24)
         1.39             (0.0757935 0.00395076 -1.72147e-24)
          1.4             (0.073889 0.00203637 -1.25034e-24)
         1.41             (0.0750962 -0.00350737 -1.33805e-24)
         1.42             (0.0787741 -0.00817422 -1.88333e-24)
         1.43             (0.0835333 -0.0105624 -2.59828e-24)
         1.44             (0.0884919 -0.0100354 -3.10419e-24)
         1.45             (0.0887754 -0.0033509 -3.10019e-24)
         1.46             (0.070166 0.0096485 -1.484e-24)
         1.47             (0.0335073 0.0216797 8.6844e-25)
         1.48             (0.0274972 0.0129747 5.86099e-24)
         1.49             (0.0488316 -0.00643897 1.02078e-23)
          1.5             (0.0595344 -0.00923499 5.59148e-24)
         1.51             (0.0670458 -0.0128285 3.42213e-24)
         1.52             (0.072913 -0.014873 1.83122e-24)
         1.53             (0.0782744 -0.0153472 5.57474e-25)
         1.54             (0.0822701 -0.0148647 -4.32749e-25)
         1.55             (0.0853061 -0.0135937 -1.29664e-24)
         1.56             (0.0871457 -0.0120607 -2.03579e-24)
         1.57             (0.0879376 -0.0106328 -2.56959e-24)
         1.58             (0.0879767 -0.00975364 -2.97531e-24)
         1.59             (0.0877273 -0.0097666 -3.17038e-24)
          1.6             (0.0878539 -0.0112651 -4.55164e-24)
         1.61             (0.0884668 -0.012087 -3.65437e-24)
         1.62             (0.0899462 -0.013548 -4.01932e-24)
         1.63             (0.0923039 -0.0141099 -4.30411e-24)
         1.64             (0.0949444 -0.0127379 -4.73568e-24)
         1.65             (0.0955823 -0.0086239 -5.20493e-24)
         1.66             (0.0873047 -0.00019743 -5.14429e-24)
         1.67             (0.0667846 0.0118178 -4.08226e-24)
         1.68             (0.052081 0.0216395 -2.05549e-24)
         1.69             (0.0528372 0.0234906 5.89309e-25)
          1.7             (0.053895 0.0157541 3.4571e-24)
         1.71             (0.058262 -0.00308837 7.64274e-24)
         1.72             (0.0628273 -0.00754759 8.79782e-24)
         1.73             (0.0665052 -0.0119083 6.77451e-24)
         1.74             (0.070693 -0.0155941 4.64233e-24)
         1.75             (0.0747546 -0.0170661 2.81678e-24)
         1.76             (0.0784691 -0.0170127 9.59637e-25)
         1.77             (0.0809185 -0.0148409 -4.34713e-25)
         1.78             (0.0814105 -0.0119306 -1.49999e-24)
         1.79             (0.0817387 -0.0105525 -2.29815e-24)
          1.8             (0.0829631 -0.0106986 -2.70194e-24)
         1.81             (0.0847329 -0.0114722 -3.10493e-24)
         1.82             (0.0867814 -0.0124827 -3.31328e-24)
         1.83             (0.0888454 -0.0135433 -3.85003e-24)
         1.84             (0.0906432 -0.0147621 -4.39705e-24)
         1.85             (0.0921966 -0.0158506 -4.97479e-24)
         1.86             (0.093724 -0.0162381 -5.69004e-24)
         1.87             (0.0949488 -0.0151696 -6.34709e-24)
         1.88             (0.0945373 -0.0118471 -7.38337e-24)
         1.89             (0.0895686 -0.00594877 -8.17117e-24)
          1.9             (0.0764927 0.00246556 -8.62054e-24)
         1.91             (0.0593599 0.012516 -7.97094e-24)
         1.92             (0.0498854 0.0223002 -6.52181e-24)
         1.93             (0.0473558 0.0298235 -4.09442e-24)
         1.94             (0.0427497 0.0377228 -1.72415e-24)
         1.95             (0.0395107 0.0419742 9.17602e-25)
         1.96             (0.0391886 0.0289691 3.84748e-24)
         1.97             (0.053314 -0.00643726 1.58748e-23)
         1.98             (0.0609555 -0.00908941 1.05367e-23)
         1.99             (0.0683913 -0.0136672 7.89695e-24)
            2             (0.0734864 -0.0170012 5.78163e-24)
         2.01             (0.0767219 -0.0194568 3.92851e-24)
         2.02             (0.0798329 -0.0212232 2.26394e-24)
         2.03             (0.0824559 -0.0221405 1.07997e-24)
         2.04             (0.085093 -0.0221614 1.87649e-25)
         2.05             (0.0871773 -0.0219354 -5.57077e-25)
         2.06             (0.0888381 -0.0220051 -1.28715e-24)
         2.07             (0.0905668 -0.0222924 -2.00678e-24)
         2.08             (0.0924732 -0.0225002 -2.73574e-24)
         2.09             (0.0944461 -0.0222836 -3.39484e-24)
          2.1             (0.0961631 -0.0215026 -4.06286e-24)
         2.11             (0.0972843 -0.0202461 -4.63673e-24)
         2.12             (0.0975565 -0.0186864 -5.12198e-24)
         2.13             (0.0968837 -0.0167955 -5.85469e-24)
         2.14             (0.0956705 -0.0145892 -6.68839e-24)
         2.15             (0.0935202 -0.0113346 -7.81584e-24)
         2.16             (0.0865213 -0.00511634 -8.57539e-24)
         2.17             (0.0695081 0.00787874 -8.74504e-24)
         2.18             (0.0582901 0.0229835 -7.03905e-24)
         2.19             (0.0566484 0.0357031 -4.46825e-24)
          2.2             (0.0556786 0.0465907 -1.71476e-24)
         2.21             (0.057625 0.0481216 4.28285e-25)
         2.22             (0.0560843 0.0301141 2.47581e-24)
         2.23             (0.0601427 -0.0029371 1.18071e-23)
         2.24             (0.0660248 -0.00659647 1.09615e-23)
         2.25             (0.0697249 -0.0121654 9.50432e-24)
         2.26             (0.0712587 -0.0171117 7.89029e-24)
         2.27             (0.07304 -0.0205156 6.16378e-24)
         2.28             (0.0749132 -0.0232174 4.49271e-24)
         2.29             (0.0771141 -0.0250671 2.95066e-24)
          2.3             (0.0790197 -0.0260718 1.92019e-24)
         2.31             (0.0800342 -0.0269576 8.17288e-25)
         2.32             (0.080671 -0.0281255 -4.57037e-25)
         2.33             (0.081285 -0.0293845 -1.45365e-24)
         2.34             (0.0820723 -0.030404 -2.57823e-24)
         2.35             (0.0833972 -0.0306462 -3.94245e-24)
         2.36             (0.0857365 -0.0294616 -5.38582e-24)
         2.37             (0.0887112 -0.0259214 -7.01531e-24)
         2.38             (0.0871922 -0.0160346 -9.46445e-24)
         2.39             (0.075051 0.00171767 -1.23873e-23)
          2.4             (0.0730405 0.0118086 -1.03567e-23)
         2.41             (0.0738839 0.0231009 -7.4753e-24)
         2.42             (0.0740137 0.0345761 -4.73632e-24)
         2.43             (0.0746613 0.0427433 -1.9098e-24)
         2.44             (0.0758819 0.0433806 3.27935e-25)
         2.45             (0.07479 0.0339984 2.81513e-24)
         2.46             (0.0745874 0.00565445 5.671e-24)
         2.47             (0.0776881 -0.00427395 1.11241e-23)
         2.48             (0.0820984 -0.00898304 8.52814e-24)
         2.49             (0.0832116 -0.0140663 5.87698e-24)
          2.5             (0.0833178 -0.0188173 4.22469e-24)
         2.51             (0.0840495 -0.0228423 2.53645e-24)
         2.52             (0.0858378 -0.0254073 1.48833e-24)
         2.53             (0.0884314 -0.0267158 5.93574e-25)
         2.54             (0.0908164 -0.0273316 -3.70806e-25)
         2.55             (0.0925861 -0.0274485 -1.22347e-24)
         2.56             (0.0936718 -0.0274681 -1.96205e-24)
         2.57             (0.0943104 -0.027929 -2.79079e-24)
         2.58             (0.0949408 -0.028892 -3.55017e-24)
         2.59             (0.0958535 -0.0299591 -4.252e-24)
          2.6             (0.0971219 -0.0305379 -5.15103e-24)
         2.61             (0.0986265 -0.0299589 -6.36082e-24)
         2.62             (0.10001 -0.0274649 -7.89709e-24)
         2.63             (0.0990292 -0.02128 -9.9347e-24)
         2.64             (0.0881797 -0.00781016 -1.38462e-23)
         2.65             (0.0745312 0.00738991 -1.45059e-23)
         2.66             (0.0724796 0.0191401 -1.1985e-23)
         2.67             (0.069094 0.0327517 -8.84359e-24)
         2.68             (0.0679763 0.0452929 -6.05949e-24)
         2.69             (0.0665865 0.0560927 -2.87506e-24)
          2.7             (0.0672729 0.0595113 -8.82321e-25)
         2.71             (0.0662184 0.0496324 2.20948e-24)
         2.72             (0.0670644 0.012163 5.78464e-24)
         2.73             (0.0697123 -0.00453001 1.92826e-23)
         2.74             (0.0724155 -0.00962536 1.26023e-23)
         2.75             (0.0718847 -0.0157708 1.01373e-23)
         2.76             (0.0704331 -0.0198421 7.96775e-24)
         2.77             (0.0706963 -0.0230251 6.44479e-24)
         2.78             (0.0711898 -0.0256386 5.03617e-24)
         2.79             (0.0718731 -0.0281341 3.62834e-24)
          2.8             (0.0727368 -0.030211 2.25058e-24)
         2.81             (0.0737215 -0.0318546 8.06787e-25)
         2.82             (0.0751585 -0.0327208 -7.47683e-25)
         2.83             (0.0774932 -0.0325442 -2.37034e-24)
         2.84             (0.0812488 -0.0311227 -4.00077e-24)
         2.85             (0.0859305 -0.027308 -5.72079e-24)
         2.86             (0.0869858 -0.0165159 -8.19858e-24)
         2.87             (0.081849 0.000664706 -1.05676e-23)
         2.88             (0.0826952 0.00999826 -8.49343e-24)
         2.89             (0.0834414 0.0218914 -5.81469e-24)
          2.9             (0.0803144 0.034624 -3.20483e-24)
         2.91             (0.0753829 0.0429463 -5.44116e-25)
         2.92             (0.0699292 0.0434691 3.20881e-24)
         2.93             (0.0691705 0.0260331 6.1153e-24)
         2.94             (0.0772712 -0.00642134 1.39999e-23)
         2.95             (0.0806319 -0.01188 9.79718e-24)
         2.96             (0.0840219 -0.0185887 6.99206e-24)
         2.97             (0.0854469 -0.0234318 4.60352e-24)
         2.98             (0.0877127 -0.0261525 2.79467e-24)
         2.99             (0.0901948 -0.0278779 1.47413e-24)
            3             (0.092575 -0.0290285 3.80981e-25)
         3.01             (0.0946051 -0.0297443 -2.95874e-25)
         3.02             (0.0961863 -0.0302862 -9.2686e-25)
         3.03             (0.0974506 -0.0307003 -1.66606e-24)
         3.04             (0.0984873 -0.0309476 -2.35699e-24)
         3.05             (0.0992996 -0.0310188 -3.21913e-24)
         3.06             (0.0998226 -0.0310078 -4.10384e-24)
         3.07             (0.0999669 -0.0309572 -4.74849e-24)
         3.08             (0.0996497 -0.0307455 -5.65377e-24)
         3.09             (0.0987887 -0.0302528 -7.02345e-24)
          3.1             (0.0976683 -0.0291748 -8.47803e-24)
         3.11             (0.0967347 -0.0267579 -9.9236e-24)
         3.12             (0.0926265 -0.0200391 -1.2823e-23)
         3.13             (0.0779786 -0.00304376 -1.8248e-23)
         3.14             (0.0712296 0.0112201 -1.84937e-23)
         3.15             (0.0710524 0.0242598 -1.39451e-23)
         3.16             (0.0686651 0.0397375 -1.04e-23)
         3.17             (0.0685803 0.0541723 -7.15094e-24)
         3.18             (0.0687716 0.0668983 -3.44707e-24)
         3.19             (0.0704634 0.0699605 -1.25445e-24)
          3.2             (0.0703924 0.0604982 2.03933e-24)
         3.21             (0.0706961 0.0231762 5.43287e-24)
         3.22             (0.0719461 -0.00569809 2.34188e-23)
         3.23             (0.0733799 -0.0121974 1.24711e-23)
         3.24             (0.0732276 -0.0194462 1.016e-23)
         3.25             (0.0721757 -0.0226977 6.86833e-24)
         3.26             (0.0725866 -0.0243836 4.90131e-24)
         3.27             (0.0725207 -0.0259159 3.31515e-24)
         3.28             (0.0723229 -0.0272722 1.96751e-24)
         3.29             (0.0728312 -0.0277679 1.02139e-24)
          3.3             (0.0745107 -0.0274263 -1.21871e-25)
         3.31             (0.0780949 -0.0266866 -1.56543e-24)
         3.32             (0.0841368 -0.0255497 -2.91428e-24)
         3.33             (0.091781 -0.0222905 -4.4436e-24)
         3.34             (0.0960596 -0.0117741 -6.27174e-24)
         3.35             (0.0877153 0.00704442 -6.19542e-24)
         3.36             (0.0795009 0.0212877 -4.11906e-24)
         3.37             (0.077561 0.033333 -1.22982e-24)
         3.38             (0.0791575 0.0384755 1.01918e-24)
         3.39             (0.0789982 0.0351774 3.98379e-24)
          3.4             (0.0816134 0.00712623 6.91359e-24)
         3.41             (0.0864678 -0.0114888 1.32948e-23)
         3.42             (0.0901138 -0.017029 8.13678e-24)
         3.43             (0.0918949 -0.0228129 5.94494e-24)
         3.44             (0.0931692 -0.0264709 3.97086e-24)
         3.45             (0.095261 -0.0288492 2.32938e-24)
         3.46             (0.0977979 -0.0306606 8.92724e-25)
         3.47             (0.10054 -0.0317727 -5.30418e-25)
         3.48             (0.102925 -0.0321462 -1.64868e-24)
         3.49             (0.104488 -0.031826 -2.43216e-24)
          3.5             (0.105185 -0.0311974 -3.07046e-24)
         3.51             (0.105319 -0.0307546 -3.62843e-24)
         3.52             (0.105277 -0.030601 -4.21086e-24)
         3.53             (0.1051 -0.0305773 -4.97582e-24)
         3.54             (0.10455 -0.0306027 -5.85911e-24)
         3.55             (0.103396 -0.030641 -6.60223e-24)
         3.56             (0.101655 -0.030566 -7.40321e-24)
         3.57             (0.0995786 -0.0304598 -8.46407e-24)
         3.58             (0.0979544 -0.0303555 -1.04323e-23)
         3.59             (0.0974926 -0.0293785 -1.1828e-23)
          3.6             (0.0946994 -0.0243529 -1.42741e-23)
         3.61             (0.0795415 -0.00705079 -2.22177e-23)
         3.62             (0.0688214 0.0102806 -2.51018e-23)
         3.63             (0.070629 0.0217379 -1.90287e-23)
         3.64             (0.0668057 0.0378916 -1.43216e-23)
         3.65             (0.065773 0.0534371 -1.01909e-23)
         3.66             (0.0661741 0.0680389 -6.83791e-24)
         3.67             (0.067652 0.0801383 -3.22285e-24)
         3.68             (0.0700183 0.0793958 -5.13055e-25)
         3.69             (0.0706224 0.0630812 2.80494e-24)
          3.7             (0.0736673 0.0130755 6.47978e-24)
         3.71             (0.0745351 -0.0104234 1.91638e-23)
         3.72             (0.0754153 -0.0179695 8.39998e-24)
         3.73             (0.0741872 -0.0236429 7.66786e-24)
         3.74             (0.0743072 -0.0250229 4.64047e-24)
         3.75             (0.0753019 -0.0245247 2.95969e-24)
         3.76             (0.0761443 -0.0234203 1.74308e-24)
         3.77             (0.0783685 -0.0221055 1.15401e-24)
         3.78             (0.0827678 -0.0205428 2.28955e-25)
         3.79             (0.089267 -0.018982 -1.04138e-24)
          3.8             (0.0970904 -0.0156949 -1.9268e-24)
         3.81             (0.103076 -0.00813629 -2.59356e-24)
         3.82             (0.101977 0.00304086 -1.76141e-24)
         3.83             (0.0952679 0.0136464 -2.6004e-25)
         3.84             (0.0915516 0.0155586 1.71394e-24)
         3.85             (0.0950477 0.00520352 2.97659e-24)
         3.86             (0.101342 -0.00668078 4.75072e-24)
         3.87             (0.103933 -0.0123688 5.07881e-24)
         3.88             (0.104007 -0.0168642 4.47056e-24)
         3.89             (0.103768 -0.0213266 3.4439e-24)
          3.9             (0.104115 -0.0251183 1.88782e-24)
         3.91             (0.105616 -0.0285289 4.5431e-25)
         3.92             (0.108169 -0.0314619 -1.16772e-24)
         3.93             (0.111497 -0.0336135 -2.75212e-24)
         3.94             (0.115133 -0.0345908 -4.39723e-24)
         3.95             (0.118478 -0.0342038 -6.0134e-24)
         3.96             (0.120972 -0.0325437 -7.31731e-24)
         3.97             (0.122207 -0.0302334 -8.39233e-24)
         3.98             (0.122424 -0.0279701 -9.18166e-24)
         3.99             (0.122192 -0.0258932 -9.77725e-24)
            4             (0.121641 -0.0236129 -1.04938e-23)
         4.01             (0.120387 -0.0208304 -1.20469e-23)
         4.02             (0.118407 -0.0181063 -1.31136e-23)
         4.03             (0.11551 -0.0156476 -1.46918e-23)
         4.04             (0.111671 -0.0137361 -1.62569e-23)
         4.05             (0.107188 -0.0122954 -1.79616e-23)
         4.06             (0.102307 -0.0109007 -1.90689e-23)
         4.07             (0.0965117 -0.00839924 -1.98576e-23)
         4.08             (0.0863581 -0.00226551 -2.26811e-23)
         4.09             (0.074198 0.00902273 -2.36579e-23)
          4.1             (0.0671276 0.0231026 -2.05525e-23)
         4.11             (0.0617929 0.0384324 -1.70632e-23)
         4.12             (0.057484 0.0537523 -1.39999e-23)
         4.13             (0.0528302 0.0696551 -1.0884e-23)
         4.14             (0.0491907 0.0855824 -7.69532e-24)
         4.15             (0.0485047 0.0992943 -3.95907e-24)
         4.16             (0.0522496 0.100244 -1.01895e-24)
         4.17             (0.0600394 0.0700183 2.94092e-24)
         4.18             (0.0805676 -0.000179152 1.07887e-23)
         4.19             (0.086682 -0.00801365 1.76464e-23)
          4.2             (0.0936385 -0.0122887 9.43496e-24)
         4.21             (0.095965 -0.0158484 8.43085e-24)
         4.22             (0.0958515 -0.0179914 5.95614e-24)
         4.23             (0.0958288 -0.0202518 5.10387e-24)
         4.24             (0.096719 -0.0223771 4.29931e-24)
         4.25             (0.098967 -0.024467 3.72077e-24)
         4.26             (0.101788 -0.0265774 2.76493e-24)
         4.27             (0.104526 -0.0278685 1.82386e-24)
         4.28             (0.107036 -0.0279048 8.38313e-25)
         4.29             (0.109282 -0.0267417 -1.54663e-25)
          4.3             (0.11148 -0.0251095 -9.99113e-25)
         4.31             (0.113875 -0.0241096 -1.87459e-24)
         4.32             (0.116484 -0.0244065 -2.87898e-24)
         4.33             (0.119323 -0.025721 -3.728e-24)
         4.34             (0.122547 -0.027343 -4.58154e-24)
         4.35             (0.126338 -0.0285944 -5.5016e-24)
         4.36             (0.130652 -0.0288886 -6.50792e-24)
         4.37             (0.135267 -0.0277842 -7.6188e-24)
         4.38             (0.139616 -0.0246446 -8.83938e-24)
         4.39             (0.142163 -0.0189031 -1.04949e-23)
          4.4             (0.140578 -0.0110408 -1.16e-23)
         4.41             (0.135001 -0.00273262 -1.17371e-23)
         4.42             (0.128251 0.00344796 -1.09777e-23)
         4.43             (0.123465 0.00529197 -1.00948e-23)
         4.44             (0.119686 0.00391768 -9.42383e-24)
         4.45             (0.115889 0.00130721 -8.85651e-24)
         4.46             (0.112555 -0.000452734 -8.44854e-24)
         4.47             (0.110283 -0.00127638 -8.41199e-24)
         4.48             (0.108141 -0.0014556 -8.61628e-24)
         4.49             (0.10526 -0.00118624 -9.16105e-24)
          4.5             (0.101718 -0.00107329 -1.00113e-23)
         4.51             (0.0977573 -0.00130732 -1.14653e-23)
         4.52             (0.0935601 -0.00180517 -1.3595e-23)
         4.53             (0.0891712 -0.00220918 -1.59107e-23)
         4.54             (0.0815288 -0.000870965 -1.81882e-23)
         4.55             (0.0588443 0.00991606 -2.12118e-23)
         4.56             (0.039187 0.0294399 -2.20417e-23)
         4.57             (0.0359311 0.0457941 -1.74172e-23)
         4.58             (0.0310304 0.0635329 -1.36582e-23)
         4.59             (0.0262075 0.0814629 -1.04501e-23)
          4.6             (0.0220532 0.0991988 -7.26943e-24)
         4.61             (0.0204252 0.1134 -4.69882e-24)
         4.62             (0.0251899 0.106639 -1.82183e-24)
         4.63             (0.0652438 0.0296364 7.71884e-25)
         4.64             (0.0944044 -0.014834 6.48313e-24)
         4.65             (0.0966595 -0.0187588 4.7991e-24)
         4.66             (0.106538 -0.0207393 4.28256e-24)
         4.67             (0.113121 -0.0228156 3.19524e-24)
         4.68             (0.117899 -0.0235169 2.1335e-24)
         4.69             (0.12106 -0.0255066 1.19352e-24)
          4.7             (0.12235 -0.0289021 9.52419e-25)
         4.71             (0.123934 -0.0320597 2.62632e-25)
         4.72             (0.125793 -0.0347218 -3.61164e-25)
         4.73             (0.128445 -0.0367165 -1.16665e-24)
         4.74             (0.131796 -0.0379408 -1.72332e-24)
         4.75             (0.135557 -0.0382495 -2.5551e-24)
         4.76             (0.139425 -0.037282 -3.23204e-24)
         4.77             (0.142843 -0.0346249 -4.12638e-24)
         4.78             (0.144697 -0.0304472 -5.054e-24)
         4.79             (0.144213 -0.0259278 -6.06085e-24)
          4.8             (0.142128 -0.0231806 -7.04109e-24)
         4.81             (0.140312 -0.022669 -7.85581e-24)
         4.82             (0.140073 -0.0229932 -8.50975e-24)
         4.83             (0.141274 -0.0226138 -9.20838e-24)
         4.84             (0.142848 -0.0205818 -1.00741e-23)
         4.85             (0.1438 -0.0169298 -1.13329e-23)
         4.86             (0.143471 -0.0123279 -1.26278e-23)
         4.87             (0.14178 -0.00752747 -1.28575e-23)
         4.88             (0.138828 -0.00316267 -1.23867e-23)